material_id,spacegroup.number,delta_volume,density,full_formula,e_above_hull,structure.lattice.volume,band_gap.optimize_structure_gap,efermi,final_energy,encut,total_magnetization
mp-29422,13,56.99268208371802,3.2183582552695706,Hf2Cl8,0.0,330.525027609476,,-1.8566674,-53.01323584000001,520.0,0.0003111
mp-29484,166,10.216284350797025,3.052031082267524,K4Hg1As2,0.0,275.7524419041567,,0.36451654,-17.13524513,520.0,3.38e-05
mp-29502,14,158.72499956930574,3.958332731016729,Al16Te24,0.0,1465.7931815344778,,2.9594855,-153.37319924,520.0,0.0003208125
mp-29509,14,35.93654687773062,4.241719557328854,Zn4As8O16,0.0060197913095212385,437.28038928080565,,0.9731954,-157.83142121,520.0,0.00020495
mp-29542,2,27.28895432513667,4.518029881116347,K8Bi4O10,0.004270132727272724,480.99521692165564,,1.00558866,-104.32622924,520.0,0.00034015
mp-29567,14,58.698234246186246,4.381024641117893,Cu4Se8Br4,0.0,456.91288360989904,,1.41693133,-54.25396548,520.0,0.000413875
mp-29689,186,75.12781083783614,5.577518581991608,Nb6Te2I14,0.0,770.8867484938561,,3.70863984,-100.15631889,520.0,0.000125
mp-29771,136,0.12697497063027186,2.061823300763972,Mg2C4,0.4336961291666359,77.84165969307027,,1.61296358,-37.50838747,520.0,0.0
mp-29809,135,6.365106581673217,3.75502846062529,Ca16Ge8N16,0.0,639.6565472613852,,4.01494656,-234.74369026,520.0,1.625e-07
mp-30009,139,7.384955982863808,3.1571604046386486,Kr1F2,0.006768191666666867,64.05915600591402,,-3.42660139,-4.02643257,520.0,0.0020514
mp-30031,164,22.380004931724983,3.3852576050589187,Ca1I2,0.0,144.15763706929,,0.03868556,-9.97760348,520.0,3.05e-05
mp-30034,164,12.479259101505363,3.3293589164818007,Mg1Br2,0.0,91.82753555287681,,-0.72906341,-9.39603983,520.0,0.0067331
mp-30053,59,3.6081476334381506,1.6347901241359186,Na2C2N2,0.2030187985416685,99.55812263343815,,-1.81518064,-38.82189911,520.0,0.0
mp-30068,160,11.807140566432096,2.7301780939784472,C1I1N1,0.4930442922916649,93.00958635807199,,-1.35207363,-17.41842554,520.0,0.0
mp-30139,72,42.86158244791642,2.755687685555712,Be2Br4,0.0,203.4573833749766,,-1.86200798,-20.28144597,520.0,2.35e-06
mp-30224,62,258.01902904108306,1.661726488497569,Si12Cl32O8,0.007686510192307594,1598.374205464423,,-2.23459911,-246.96639500999999,520.0,0.000264325
mp-30302,166,22.557548198226712,7.685253705528227,Hf2Br2N2,0.011412793333333227,117.71426532033742,,2.40520153,-50.037343469999996,520.0,5.96e-05
mp-30315,123,0.6980665952645211,2.758641015551195,Ca3B1N3,0.0,104.1749736161605,,4.17059247,-45.28691473,520.0,0.0001295
mp-30930,14,186.36524444044244,3.204476174802493,Al4I12,0.0,845.0596498540915,,-0.37317806,-43.97866822,520.0,0.00165435
mp-30943,148,30.990328908591977,3.5927664135447435,Mg2P2Se6,0.0,270.0654450287026,,1.86602426,-41.02498072,520.0,0.00085665
mp-30953,14,140.89223537236046,3.09043090831465,Ga4Br12,0.0,665.0579328079705,,-2.43023,-45.10587112,520.0,0.000556175
mp-30954,14,163.4163703252848,3.6452207535192342,Ga4I12,0.0,820.7648254173143,,-0.42855134,-38.35212627,520.0,0.0006288
mp-30979,14,92.25602804484663,2.343968462223864,Ga4P4S16,0.0,648.7999269619484,,1.108192,-109.80997837,520.0,0.0013049
mp-30984,15,40.35309781111516,3.8965207956302716,S2I4O12,0.0,325.4752847715802,,1.60114782,-85.89716820000001,520.0,9.3e-05
mp-31012,12,92.21799252133701,3.959539263729863,K4Nb6Br18,0.0,902.5423435992142,,,-127.20542680000001,520.0,0.0
mp-31015,8,36.46322411070315,6.084557498136507,Ta3S1Br7,0.006342542567551845,309.5449787261046,,2.3055135,-61.41880601,520.0,0.0008127
mp-31040,12,55.838960641128864,2.5853158048727876,Nb2Cl8,0.0,301.5175420046864,,0.00494957,-47.51611661,520.0,0.00041665
mp-31220,162,35.047027207311544,4.572880805412276,Al2Si2Te6,0.0,318.0031769312361,,4.07303564,-39.8794137,520.0,5.1e-06
mp-31360,12,55.584461339926065,4.085384385329972,K4Ta6Cl18,0.0,764.2372085244856,,2.14534051,-150.40419607,520.0,3.095e-05
mp-32750,160,2.567302633131362,5.675146773596349,Cu4I4,0.007419952499999827,222.90203459949666,,4.40120073,-23.6636066,520.0,5.92e-05
mp-32880,119,-2.3091111165440736,5.134750183925728,Cu1Br1,0.005467514999999867,46.39063571850012,,3.05778491,-6.22545472,520.0,0.0002624
mp-33333,141,-7.802326942998434,4.910392042961095,Na2Sb2Se4,0.017317473749999923,204.70665629954655,,3.75213413,-29.78095027,520.0,2e-07
mp-33526,141,1.7335496660441834,5.300323297996737,Li2Bi2S4,0.016023668749999942,175.4746858865824,,4.15006158,-33.90114941,520.0,5.71e-05
mp-33683,141,0.15531174586220686,6.639285885582697,Ag2Sb2Se4,0.02068009562499995,193.8578717868383,,4.66197867,-29.21567967,520.0,1.02e-05
mp-34260,123,31.33123566442987,0.7919624884552582,Zr1F4,0.13360943099999734,350.61177552942985,,-8.64238415,-33.68203488,520.0,7.8e-06
mp-34371,141,-8.25032941997199,5.658922159669758,Ag2Sb2S4,0.06209574125000028,172.3992469437306,,5.63157804,-31.48288768,520.0,9.84e-05
mp-34663,141,-18.54999511861655,4.619624477591522,Na2As2Se4,0.11589258593749996,183.9188351376902,,2.7303934,-29.38633972,520.0,8.645e-05
mp-34857,8,3.94814939557088,1.814295308820665,K1N1O2,0.0,77.8914996171225,,-1.10812395,-23.11164454,520.0,0.0
mp-34932,107,1.7945612493081597,2.555175010455815,Ca1H1N1,0.0,35.8032147161403,,2.62513142,-15.93789706,520.0,2.68e-05
mp-35015,141,16.619651844314404,5.966342789143709,Na2Bi2Se4,0.034880516249998994,217.02670137548955,,2.79268398,-29.98455251,520.0,2.905e-05
mp-35035,44,9.079116781431452,1.6118170611789877,K1C1N1,0.17071281437499852,67.08401627653498,,-2.65684919,-19.33874291,520.0,0.0
mp-35308,160,3.699776177068472,2.8195899491501137,Cu1C1N1,0.23890470962332788,52.7465074487035,,-0.28356756,-20.56052391,520.0,8.47e-05
mp-35925,166,-1.4923310261067613,3.170679868512558,Ni1O2,0.0894375947222219,47.49704951895288,,-1.67966389,-13.733780370000002,520.0,7.2e-05
mp-36577,1,-4.476065112018944,3.0949756020434167,Sr1As2S4,0.037632850357143255,196.22049719318233,,1.96047913,-32.19340539,520.0,0.0003251
mp-37879,141,4.328846855345006,4.476734909585393,Li2Y2Se4,0.01763555999999955,188.25763418806068,,2.19537968,-44.19405762,520.0,1.415e-05
mp-37919,59,31.136219650112835,4.862117268299883,Y2C2Br2,1.0019317983333336,123.50980691761987,,3.87559789,-35.12416753,520.0,6.5e-07
mp-38011,160,0.7170722705945423,1.6866475346291745,K1H1S1,0.0036427066666644414,71.05406383056686,,-0.5257978,-10.94585335,520.0,4.13e-05
mp-38222,44,-31.060803374280596,1.621428329337365,Na1C1N1,0.20673728354166787,50.189278401584275,,-1.50230084,-19.3997941,520.0,2.78e-05
mp-40886,148,10.541403686668986,2.572949786754368,Zn1C2S2O6F6,0.17702358235294557,234.6273345375121,,-1.22120761,-93.18883326,520.0,1.33e-05
mp-504594,166,5.313541660367875,5.425262742549344,Zr2Br2,0.0,104.75611535215353,,4.28145729,-24.38577995,520.0,3.3e-06
mp-504825,14,116.79319351380957,2.5658002571057006,Se8Cl8,0.022824878964843975,592.3680229039536,,-0.94612556,-45.74035469,520.0,0.0
mp-505000,2,8.911312181119229,2.281821457650174,Mo2Cl8O2,0.08679522858797117,369.32259072414706,,-1.77569303,-49.03356411,520.0,0.00078955
mp-505373,14,37.068968542501295,4.683892715226925,As4Se4I4,0.0,398.17840370887626,,2.22031566,-40.75956657,520.0,0.000110825
mp-505727,62,27.087542191104063,1.6209152471552872,N4Cl4O4,0.0,268.2370747367041,,-2.04272531,-60.054293040000005,520.0,0.0
mp-540807,62,64.2372680423349,1.5635105237370572,C8S12N8,0.3007243986694865,629.7146480423349,,-0.98739819,-177.71558383,520.0,0.00015925
mp-540943,14,103.58234355687296,3.3964787360705473,Se8Br8,0.004205195292969144,621.3490960482329,,-0.62274506,-42.41066348,520.0,0.0
mp-540977,12,30.07101027820687,8.163524936329019,Bi10I2O14,0.003940745576919369,522.2753174890777,,3.78185294,-141.80316453,520.0,0.00021035
mp-541013,15,56.43035432808574,4.366868798781903,Ti2I8,0.0,422.45570997095723,,1.60481113,-35.2488061,520.0,0.00028305
mp-541441,63,20.666705326914723,6.338837949688227,Zn2Te2,0.26612905750000015,101.12231362126037,,4.59120859,-9.63837949,520.0,8e-07
mp-541610,14,116.15875670400521,3.641964662822806,Ge8Br16,0.0,847.869794476805,,-0.68903983,-76.87343303,520.0,0.00027495
mp-541656,2,54.98929425976564,4.949101439917931,Au4Cl8,0.0,359.50999507253573,,-0.4544838,-30.82551853,520.0,7.8175e-05
mp-541756,148,158.03590534037335,2.7002211541412198,Te6Mo3Cl36,0.0026371424444433522,1432.6990552784898,,0.86905281,-148.27329082,520.0,2.0029480333333334
mp-541911,166,20.852811711529256,6.8990248529076155,Hf2N2Cl2,0.0,109.7312690058682,,2.85103713,-51.48802646,520.0,0.0001713
mp-541966,73,18.668117778807925,3.729579838750528,K4Ag4C4O12,0.0,368.61067131332203,,0.43122975,-143.38123004,520.0,0.0001111
mp-541989,12,0.5632898102246031,2.1492290793855893,Na4C2N4,0.0,132.896395996797,,1.47792634,-61.62907664000001,520.0,4.875e-05
mp-542463,15,80.95037266158079,1.791556465537812,Mg2Al4Cl16,0.0,670.853455101006,,-1.4579026,-83.24956326,520.0,4.845e-05
mp-542699,62,99.75973435896367,2.75414753235372,Se12C8N8,0.3717321038512482,696.7735736709636,,-0.85230374,-168.88906018,520.0,0.00021415
mp-543096,164,-0.28464644776147097,4.80593397888115,Ni1O2,0.09686906805555573,31.335831783221472,,1.68768901,-13.71148595,520.0,5.66e-05
mp-545552,31,16.53922428990999,5.566359899106515,Sn2O2,0.0725138499999991,80.37217205121128,,4.67789242,-22.77195363,520.0,4.65e-06
mp-546279,59,5.8739995671807606,3.654160787905959,Sc2Br2O2,0.0,128.01975627218076,,0.62564219,-42.560562,520.0,0.0001141
mp-550547,8,-0.734697620291854,2.0482775005410945,K4C1O4,0.2609175805555557,188.4079494124275,,0.70966287,-44.79699397,520.0,0.0
mp-550714,29,35.26686862718279,7.885728893465668,Pb4O4,0.02238511421874989,188.00104462718278,,3.22049922,-43.46563289,520.0,0.0
mp-551203,72,18.816174393392657,4.483095454209957,Sr4I4O2,0.0,329.6919063203078,,,-44.3127678,520.0,1.1e-06
mp-551873,139,5.68383853496087,5.20816609452499,Ca4Bi2O1,0.0,189.47402417216685,,4.00824294,-31.293948030000003,520.0,0.0001062
mp-552120,166,6.579235776121436,3.8327361465436836,Y2Cl2O2,0.0,121.62087073030584,,0.72936508,-45.05461482,520.0,9.955e-05
mp-552169,67,40.39514219596023,3.535791857237689,Ag2Cl2O4,0.32984230875,164.67355333537066,,0.50533243,-27.08448011,520.0,1.48e-05
mp-554134,39,4.196451412518115,1.2825759163152513,Sn2S2,0.050226945000000356,390.41396391612994,,-1.99935909,-17.84904221,520.0,2.145e-05
mp-554216,19,100.1511159193874,2.7273324948231523,K12Bi4P8S32,0.0,1570.2091799133873,,1.69780702,-245.61009663000002,520.0,1.675e-06
mp-554646,9,92.22920794019967,2.382354543215976,Te2S8N8Cl8,0.18631041596640951,632.4705715582927,,0.53582897,-118.14789127,520.0,0.0014085
mp-555279,14,321.1099481226522,1.96461534597865,B12S12Br12,0.0013114022222220356,1245.3184817996364,,-2.14564706,-167.7359684,520.0,8.7075e-05
mp-555874,9,4.049619804777905,3.001681376816305,Li2As2S4,0.0,161.52707860567827,,2.92611993,-34.51815693,520.0,0.0
mp-555918,36,54.7266054050732,6.870396892714477,Hg8Se4O12,0.006118717499999704,510.5929763943111,,-0.33074967,-89.54357701,520.0,0.000266875
mp-556084,62,1.2842591865198756,2.198745164997151,K4Cl4O12,0.020673943124998928,370.20793918651987,,-1.03920264,-85.92436017,520.0,0.000417875
mp-556111,62,-32.22982708524273,4.823386289220941,Y4Se4F4,0.10331324249999962,257.32576162309647,,2.1770769,-80.65884003,520.0,0.00010325
mp-556742,194,45.934025731028015,3.4166645115263106,Ga4S4,0.0012014374999997912,197.88064907550802,,1.56482457,-33.8472851,520.0,2.2e-06
mp-556745,14,26.108259218305392,5.889641206197772,Tl4C4O8,0.0414418227343738,280.12975813933576,,1.53342998,-102.98439106,520.0,3.6075e-05
mp-556845,64,42.14198757839034,2.780630868222899,C4I4F12,0.1642305415625005,467.97557688759963,,-1.32082305,-89.72323156,520.0,0.0002397
mp-556859,11,33.0663717067456,9.877814052448988,Hg8O8,0.000506393750000278,291.2831947963283,,0.45084648,-46.63371272,520.0,0.00013725
mp-557179,12,1.8234146655995005,3.6049852829095688,Na2Sb2S4,0.020456372499984887,192.42964080879077,,3.8306411,-32.69741195,520.0,0.00014985
mp-557250,62,55.26995105924715,4.776762560600032,Hg4I4N4O12,0.0,541.6044040163971,,-0.44484894,-108.16817698,520.0,0.000417225
mp-557322,99,-3.7573210564025317,7.280072087661295,Bi4Te2Br2O9,0.16959021088235282,318.1735103786426,,4.62212651,-86.6091056,520.0,0.0019095
mp-557637,72,55.89060733966903,6.49658153305111,Hg8Se4O12,0.0,539.9726580224717,,-0.4528479,-89.69042623,520.0,3.615e-05
mp-557685,62,18.072798451995027,5.059582819435191,Nb4I4O8,0.02091105989583486,330.572515083695,,2.61380449,-116.76122527,520.0,1.5e-06
mp-557719,64,-11.591435667017777,2.6845487260020526,Pb4S4,0.059320591250000554,591.9935362801772,,-1.07919416,-35.18599387,520.0,6.8775e-05
mp-557835,129,5.6562605106041275,7.95339548909987,Tl2F2,0.004204142499999897,93.27690028583591,,1.22774139,-15.46899427,520.0,0.0
mp-558731,14,-1.4349949913031423,3.1873104839840374,Li8Te4S12,0.0,495.30403692175287,,3.22956619,-93.70666428,520.0,0.0006184
mp-558747,2,49.90096852912018,3.467122014889451,Ti2Tl2P2S10,0.0,424.8656554014379,,1.97576549,-84.12738762,520.0,5.84e-05
mp-558928,136,12.653694230758987,2.992892824950852,Kr2F4,0.0,135.15019930575897,,-3.54767318,-8.09347429,520.0,0.0001425
mp-559332,14,37.862634366338796,6.311034028462171,Bi4Te4I4O12,0.007582046458332492,538.3191421270238,,3.42184917,-117.56505269000002,520.0,0.0001644
mp-559554,12,10.835008303223674,1.8445792322205428,Li4Te2O6,0.0024225854166717298,341.1501809312237,,-2.14781675,-63.68265533,520.0,2.05e-06
mp-559676,63,-0.5017258316091926,5.060458216697425,Sn2S2,0.01687585250000012,98.9506337311074,,6.07381097,-17.98244658,520.0,7.845e-05
mp-560802,148,46.25994418618575,3.8223934670799813,Te7O6F30,0.008210735348835208,677.331355095451,,-1.7592911,-184.84176476000002,520.0,0.0011337
mp-561320,5,12.235229165640646,1.9655456166418186,Pb2S2,0.05957994750000051,404.2733682105141,,-2.01289297,-17.59195951,520.0,4.82e-05
mp-561379,14,185.34357058219928,2.817504698379959,Ga4Re4Cl24O8,0.0,1180.2550776637033,,-2.09603425,-187.00837373,520.0,3.15e-05
mp-561397,14,27.52151177109215,2.144526191496681,S4O12,0.0040967235416680126,247.97658297573412,,-1.94141008,-92.7657741,520.0,6.4775e-05
mp-561472,72,40.739537926602054,6.254724085421815,Hg8P4O12F4,0.0,530.0688931597913,,-0.26718449,-133.89858303,520.0,9.175e-06
mp-561703,63,30.493641152110314,4.151050909208874,Au2C2Cl2O2,0.14752808609375023,208.35862628878073,,-1.58672379,-42.17374741,520.0,7.31e-05
mp-561848,62,90.12414473875481,1.2832382514265446,C24O16,0.5101984752499984,704.2680671387548,,-2.50522994,-311.53402071,520.0,0.0
mp-566801,10,6.405508123346749,1.8397974356128333,V4O8,0.5010316516666595,299.43645636930853,,-1.48571995,-87.28390778,520.0,0.999997975
mp-567259,164,13.046394840197138,5.090556180230188,Cd1I2,0.0017264935555556526,119.46091665939714,,1.05249102,-5.72408435,520.0,5.9e-06
mp-567279,137,18.647903181363034,2.7483742111266487,Zn2Cl4,0.004688236666666512,164.72020318136305,,-1.48008954,-16.76295262,520.0,7.18e-05
mp-567296,164,41.0544693291115,5.064589870370157,Cd3I6,0.0013718746666666615,360.22018948911153,,1.02054224,-17.17544462,520.0,1.6333333333333333e-06
mp-567336,164,56.24985150698211,5.047623902035813,Cd4I8,0.0011489085555556056,481.90793878378213,,1.00238768,-22.90326842,520.0,2.2875e-05
mp-567359,164,69.73258167598374,5.053140032359938,Cd5I10,0.0012026415555554948,601.7273454743838,,1.00570807,-28.62827953,520.0,1.03e-05
mp-567402,164,84.02758068342894,5.0500494827372995,Cd6I12,0.0011134680000000063,722.514711598629,,0.99731164,-34.35554056,520.0,3.5166666666666667e-06
mp-567442,164,82.98033649941817,5.057379868636354,Cd6I12,0.0011990941111112985,721.4674674146182,,1.01240932,-34.35399929,520.0,3.4499999999999996e-06
mp-567474,12,17.99847795158911,2.3998370448835438,Li2Cr1Cl4,0.04700088206348685,143.70872389305907,,2.94040737,-30.815578150000004,520.0,3.9999963
mp-567483,164,84.27690266780633,5.048307436509573,Cd6I12,0.0011185557777779742,722.7640335830064,,0.99301442,-34.35544898,520.0,3.5833333333333335e-06
mp-567504,148,36.9861711344482,2.4615440741222288,Cr2Cl6,0.0014464741666664338,213.65030876148097,,0.38045482,-39.28329777,520.0,3.0000866
mp-567534,164,112.60310072356208,5.047082453427233,Cd8I16,0.0011081510555557283,963.9192752771621,,1.00762895,-45.80751502,520.0,1.4625e-06
mp-567558,129,6.513540701934403,3.922248171175263,Cs2Ag2Cl4,0.0,263.9079463441904,,0.27435487,-24.62142458,520.0,5.255e-05
mp-567567,164,132.83773656982657,5.018936092046038,Cd9I18,0.0008221376296297933,1090.4905876450266,,0.95371848,-51.54117676,520.0,3.4444444444444444e-07
mp-567677,187,29.614395624193676,4.220595811703559,Ge1I2,0.11797358000000013,128.43712916869367,,1.12125278,-8.33880519,520.0,2.39e-05
mp-567713,156,26.524042607077718,5.727548764488096,Nb3Te1I7,0.0019175122727235205,375.3468840801618,,3.96585792,-50.05706681,520.0,8e-07
mp-567798,64,163.10466320878663,6.3051217701603575,Hg16As4I20,0.010107971562499651,1592.61601682745,,0.78805187,-63.45078627,520.0,0.000254575
mp-567885,187,9.425719020147682,2.1791458687101097,C6N8,0.13862906203285874,140.30028886495967,,3.13075537,-117.03181212,520.0,0.00069405
mp-567914,141,503.6173723761174,4.3079558757766465,Te8I32,0.007688995749999927,1958.8020287340994,,1.04969694,-78.42399281,520.0,0.0003447625
mp-567931,162,-8.044584089166506,5.226638041623509,In2Si2Te6,0.0,334.0392727649003,,4.52746269,-37.26349722,520.0,1.45e-06
mp-567944,137,87.42025558419266,1.3838510799609387,B8Cl8,0.2817353759027803,444.11240058419264,,-2.20822184,-74.06212563,520.0,0.0
mp-568024,14,139.5751136517813,3.063118954974632,I8Cl8,0.009207131874999996,704.1213125145812,,-0.13239908,-29.24638747,520.0,1.375e-07
mp-568233,166,27.462965878790015,5.061528732307203,Cd2I4,0.0015386485555555218,240.29203023777217,,1.00023008,-11.44929577,520.0,1.02e-05
mp-568245,2,76.82693526560479,3.715039017213499,Nb2Br10,0.0022995985416667253,440.2070742875771,,,-47.0065655,520.0,0.0
mp-568263,186,51.28508242412062,4.469535145622361,Ga8Se8,0.0008523724999998095,441.9142806403706,,1.39432255,-61.61778292,520.0,1.585e-05
mp-568286,67,44.37267441239101,1.8843498999481185,C16,0.0,169.34635121239103,,,-147.6075773,520.0,0.0
mp-568289,166,38.78377225290632,5.09524146730438,Cd3I6,0.00183565244444428,358.0532020898606,,1.08487926,-17.17127062,520.0,6.966666666666666e-06
mp-568301,12,44.73671826478443,4.438965802803342,Bi2Br6,0.002055485000000079,335.6958716288198,,-1.06516197,-23.75433261,520.0,1.3e-06
mp-568333,225,28.410939007092907,3.5521570288582396,K2Sn1Br6,0.014178264999999968,316.16658726588173,,-0.32384065,-26.65245262,520.0,0.0001356
mp-568346,59,6.962331026162815,6.767894658038323,Hf2Br2N2,0.0,133.66992830956283,,1.57573411,-50.10582023,520.0,0.0001151
mp-568394,15,54.53791191388922,3.263482045659338,Mo4Cl12,0.03423523187499811,411.7386062531148,,2.28217235,-78.78960009,520.0,1.9999572
mp-568405,128,49.201396618340766,2.408217216176456,K4Nb2Cl12,0.0,529.3124867473408,,1.48977008,-75.38716167,520.0,1.00043495
mp-568560,225,6.275832607122041,6.0557530440636365,Tl1Br1,0.0,77.95399792416487,,0.97446138,-5.76707896,520.0,0.0001034
mp-568690,166,13.786302179363489,4.581178875535605,Cd1Br2,0.0009744133333331462,98.6711694109327,,-1.14126055,-6.840860709999999,520.0,8.94e-05
mp-568722,166,21.91082884931089,4.644457914896783,Cd2Br4,0.0016296483333331224,194.65362167666697,,-1.04077121,-13.677790009999999,520.0,5.08e-05
mp-569005,162,143.0415158128277,2.6770966233283384,Mo6Cl24,0.004553986499999496,884.8312931206278,,1.09816493,-133.83373902,520.0,0.05068698333333333
mp-569028,225,37.053062614727594,3.833608117446009,Rb2Sn1Br6,0.0,333.12484118172773,,-0.52503918,-26.7227111,520.0,0.0004103
mp-569066,225,43.20620498948989,4.6252235097557675,Cs2Pd1I6,0.005466334166665643,407.0036625034019,,1.32310647,-23.21782581,520.0,0.0
mp-569126,148,60.6249876184898,4.99619229164321,Ag2Bi2P4Se12,0.0,566.7126663883735,,2.27558769,-80.69048413000002,520.0,0.0003098
mp-569149,225,16.725047849132807,2.5055500699553384,K2Te1Cl6,0.0,277.3681677502344,,0.21948628,-27.581197429999996,520.0,0.0003737
mp-569175,13,36.7767598198497,2.4571653860734624,Zr2Cl8,0.0,314.9689295793057,,-1.5528983,-49.64075399000001,520.0,0.0011