material_id,spacegroup.number,delta_volume,density,full_formula,e_above_hull,structure.lattice.volume,band_gap.optimize_structure_gap,efermi,final_energy,encut,total_magnetization
mp-569304,166,4.1656416543186765,1.2743713871724804,C4,0.029940296250000387,62.60101709276256,,0.49719307,-36.78213314,520.0,2.5e-08
mp-569346,186,-3.998431811298431,5.746819130941854,Cu2I2,0.008815107499999808,110.06103843380156,,4.51002899,-11.82622268,520.0,5.03e-05
mp-569416,166,7.321627121210497,1.5831388688537664,C8,0.028800843750000027,100.78325604963835,,1.66408389,-73.5733819,520.0,5.5625e-06
mp-569436,2,47.50601221421374,2.5837850153284077,Mo2Cl10,0.00017905333333345652,351.16510524815266,,,-49.64274187000001,520.0,1.0
mp-569578,2,85.16829376121495,4.469477770654605,Nb2I10,0.0,540.5212272957361,,,-40.59933596,520.0,0.0
mp-569639,225,6.557607853997332,5.716620014209961,Tl1Cl1,0.0,69.66661040425848,,1.18964169,-6.24556289,520.0,7.2e-06
mp-569715,163,66.6185041387069,4.809999977964558,Cu2Bi2P4Se12,0.013903900625000354,558.047397256883,,2.95306292,-82.65133808,520.0,0.00012935
mp-569756,151,152.49062036222836,2.411066166087875,Ti6Cl18,0.02597735708333282,637.3071736938124,,2.26162021,-118.63806331,520.0,0.014254966666666667
mp-569857,70,22.27003010815747,1.9125771433062517,K8P12,0.0,594.2723536977251,,,-82.54868454000001,520.0,0.0
mp-569890,153,85.12242086035644,2.5119681368552027,Cr6Cl18,0.0,628.0847799183564,,0.48922232,-117.88460869,520.0,3.0000674000000003
mp-569960,166,9.314176492811356,4.049329351949676,Zn1Br2,0.08647133708333365,92.35643447762895,,,-7.00639158,520.0,0.0
mp-569964,156,112.202842400392,5.049179077078832,Cd8I16,0.0010544702222223812,963.519016953992,,0.99314475,-45.80880336,520.0,2.625e-06
mp-569994,186,55.5145874563583,5.05533700918242,Cd4I8,0.0011577027222222647,481.1726747331583,,1.00344826,-22.90316289,520.0,2.275e-05
mp-570019,156,113.52504467488814,5.042259766494868,Cd8I16,0.0010500052222224276,964.8412192284882,,0.99201524,-45.80891052,520.0,2.5875e-06
mp-570054,186,112.11717440918892,5.049628047450496,Cd8I16,0.0010859598055554809,963.433348962789,,1.0071018,-45.80804761,520.0,1.0625e-05
mp-570080,14,2.1435685303951004,4.447527245912996,Li8Te4Se12,0.0,565.0644391935632,,2.62135097,-84.91699507,520.0,0.0025257
mp-570081,164,-2.448621778870745,5.687300879065026,Cu2I2,0.0008049599999999657,111.21283974458525,,3.9940612,-11.85826327,520.0,4.765e-05
mp-570082,156,114.17202485729649,5.038880914070294,Cd8I16,0.0009945135555555762,965.4881994108965,,0.97038881,-45.81024232,520.0,2.5625e-06
mp-570089,186,218.61629934042958,4.879323446281069,Cd12I24,0.0001144491111113588,1495.5905611708297,,0.72791695,-68.7470458,520.0,3.5e-07
mp-570127,156,115.29520248475637,5.039519524435115,Cd8I16,0.0010357348055556326,965.3658522767565,,1.02306284,-45.80925301,520.0,2.625e-06
mp-570157,59,8.438562802703018,4.498241083992382,Zr2Br2N2,0.014410348333332657,136.686047398703,,1.25247097,-46.58445117,520.0,5.04e-05
mp-570165,156,138.44077237750093,4.9932801826980935,Cd9I18,0.0006300768888889419,1096.093623452701,,0.89854043,-51.5463624,520.0,7.666666666666667e-07
mp-570172,36,8.196417315159863,5.1004857239195855,Hg2I2Br2,0.01109980052083337,265.26927076717544,,-0.96029915,-9.2162972,520.0,7.555e-05
mp-570173,128,38.42785446882738,2.5405951549112205,K4Sn2Cl12,0.006595647222222389,535.4632269761634,,-0.42286563,-60.69957120000001,520.0,3.715e-05
mp-570219,12,39.32311263806122,4.176095810624796,In2Br6,0.0,281.94319888610096,,-0.3707467,-22.04148293,520.0,8e-05
mp-570259,164,7.066959745194552,2.1048322712680263,Mg1Cl2,0.0015973833333338128,75.11362529718055,,-0.51593048,-10.86024165,520.0,0.0
mp-570263,156,159.50539442176455,4.898787833174735,Cd9I18,0.000239303555555459,1117.2360907945647,,0.77555232,-51.55691328,520.0,6.112222222222222e-05
mp-570314,156,137.59553369933178,4.997133658859321,Cd9I18,0.0006624113333333348,1095.2483847745318,,0.90929579,-51.54548937,520.0,5.333333333333333e-07
mp-570355,15,87.10352441252809,2.963400474020906,Pb2Cl8,0.0,391.13717940533155,,,-28.34678172,520.0,4.45e-06
mp-570410,156,132.34740702409272,5.021193827891323,Cd9I18,0.0008353135555554392,1090.0002580992928,,0.95573003,-51.54082101,520.0,5.222222222222223e-07
mp-570437,156,41.59114977218883,5.057055526433349,Cd3I6,0.00120258688888919,360.75686993218886,,1.00305716,-17.17696821,520.0,4.33e-05
mp-570448,156,245.48391689034065,4.855966185444246,Cd13I26,6.650381196582345e-05,1628.0164022663407,,0.71430405,-74.47783615,520.0,7.484615384615384e-06
mp-570472,156,70.57420394469386,5.046082192667208,Cd5I10,0.0011306308888887617,602.5689677430939,,0.99526929,-28.62935969,520.0,8.76e-06
mp-570492,156,256.1593722139055,4.824331409311474,Cd13I26,5.718278632493856e-05,1638.6918575899056,,0.68760841,-74.47819967,520.0,2.0615384615384615e-06
mp-570506,31,47.20440469290128,5.3553599242711805,Zr4I8,0.0,427.9381218501013,,4.61992064,-57.08470007,520.0,9.0975e-05
mp-570511,156,70.60130587244976,5.051075356929778,Cd5I10,0.001099661555555631,601.9733072900499,,0.99887229,-28.62982423,520.0,1.626e-05
mp-570552,156,274.31208026153536,4.77147510557936,Cd13I26,9.314483760691772e-05,1656.8445656375354,,0.58742772,-74.47679715,520.0,2.6e-06
mp-570559,156,70.61137486238886,5.050990870831067,Cd5I10,0.0010994095555556527,601.983376279989,,1.0075095,-28.62982801,520.0,1.64e-05
mp-570572,160,-3.557340661435944,2.1061203659282324,C3N4,0.13673801917571637,72.58246010174379,,3.09092087,-58.52914335999999,520.0,0.0
mp-570589,41,38.11362585333555,3.6389184370098437,Se4Br4,0.007620162792969065,289.9761328724129,,-0.30059015,-21.178012,520.0,0.0
mp-570610,156,258.2401242146634,4.818213415158252,Cd13I26,3.143842735053859e-05,1640.7726095906635,,0.67614892,-74.4792037,520.0,3.353846153846154e-06
mp-570613,156,83.9500529075433,5.0505914248096015,Cd6I12,0.0011377691111114085,722.4371838227433,,,-34.35510314,520.0,2.0333333333333335e-06
mp-570632,225,2.237324444238091,7.666075753876731,Sc1Bi1,0.0,55.00482558320422,,5.35898923,-11.54175499,520.0,0.0002855
mp-570671,156,95.97319688080768,4.967913047840157,Cd6I12,0.00047182911111098846,734.4603277960077,,0.86186993,-34.36709006,520.0,1.6333333333333333e-06
mp-570695,156,85.3815800055105,5.0406033449599015,Cd6I12,0.0010726974444446036,723.8687109207106,,0.9946384,-34.35627443,520.0,3.5833333333333335e-06
mp-570747,136,8.078290948176985,1.056321202581172,N4,8.881784197001252e-16,88.07424148917698,,-6.29953094,-33.26626098,520.0,0.0
mp-570778,138,687.214480222905,0.8294266293252405,Cl16,0.0,1135.648912222905,,-4.33357401,-28.79753472,520.0,0.0
mp-570781,156,99.18161094196353,4.946305622755069,Cd6I12,0.00036022799999990696,737.6687418571636,,0.84084231,-34.36909888,520.0,4.433333333333333e-06
mp-570782,2,-38.74866518515029,1.117480975847525,Mg2Cl4,0.12196784000000127,282.96066949601874,,-3.8636406,-20.99826056,520.0,7.5e-05
mp-570882,156,84.85001098931957,5.050830428440725,Cd6I12,0.0010817002222223149,722.4029983333197,,1.00842447,-34.35611238,520.0,3.5166666666666667e-06
mp-570886,72,37.527164531806676,3.5881784324571133,Be2I4,0.0,243.2569850316768,,0.45762777,-17.02908178,520.0,0.0002559
mp-570922,115,-8.886137823659027,1.8039841529282876,Mg1Cl2,0.08394090333333404,87.6402280368174,,-1.363911,-10.61321109,520.0,0.0
mp-570935,186,5.026149593697227,3.316300702967706,Li2I2,0.0,134.03828432280324,,-0.06013211,-11.79689382,520.0,0.0
mp-570939,156,107.76242564910388,4.895558285754255,Cd6I12,0.00018289466666665533,745.315412993104,,0.75977694,-34.37229088,520.0,4.666666666666666e-06
mp-570964,166,-7.934411609466267,5.088507425480855,Zn1I2,0.13970724312499994,104.17079259509708,,1.95040339,-5.74350423,520.0,0.0001649
mp-570997,151,104.3171800932239,3.2626346693041306,Ru6Cl18,0.029829694791666306,633.4339957252239,,1.16633288,-101.08769159000002,520.0,0.00149385
mp-571037,156,98.19174108556047,5.049559952525942,Cd7I14,0.0010930349841269393,843.0155485223606,,0.99592781,-40.08189308,520.0,3.4142857142857145e-06
mp-571065,148,16.62072215016974,3.941194144479226,Ti2Br6,0.001839907500000848,242.33069424051922,,1.92186973,-35.37959203,520.0,0.9996654
mp-571091,156,97.61378931695504,5.053024187878789,Cd7I14,0.0010989283174602793,842.4375967537552,,1.00106541,-40.08176932,520.0,3.3714285714285716e-06
mp-571096,164,2.2734582526313787,3.1838997695995586,Fe1Cl2,0.00396895999999991,66.10603319510638,,2.45527773,-14.284286389999998,520.0,0.0378222
mp-571102,225,7.362285911748515,6.050144424314729,Tl1I1,0.0,90.9261394403572,,1.81162724,-5.24882104,520.0,0.0001152
mp-571122,164,5.538179190592274,5.062750310291855,Fe1I2,0.0,101.56385852459226,,,-11.7990937,520.0,4.0000003
mp-571136,156,103.62924144678641,5.017198722753687,Cd7I14,0.0007923378412699744,848.4530488835866,,0.94451668,-40.08820772,520.0,3.2085714285714284e-05
mp-571195,144,44.88092832585377,5.424327957909449,Zn3Te3,0.0031023566666665836,177.25641704832378,,2.85055351,-16.03572944,520.0,1.1433333333333333e-05
mp-571197,156,99.05152549891352,5.044415196218906,Cd7I14,0.0009989759365078843,843.8753329357137,,0.99910431,-40.08386832,520.0,3.2285714285714288e-06
mp-571225,156,130.36672851251603,4.863920915869827,Cd7I14,0.00011160974603185991,875.1905359493162,,0.70619895,-40.10250301,520.0,4.528571428571428e-06
mp-571279,11,45.87945878639164,5.39017577704592,Zr4I8,0.00019313583333246953,425.1740133565566,,4.58110884,-57.08238244,520.0,5.995e-05
mp-571386,225,3.4558428796012564,4.922879812053348,Cu1Cl1,0.17333564500000032,33.393401971435026,,5.38241207,-6.35399991,520.0,0.0001435
mp-571387,51,-15.269358007841134,2.0942289761595974,Mg2Cl4,0.14207013833333448,150.9878665009851,,0.26321156,-20.87764677,520.0,0.0005525
mp-571436,215,69.71799444990984,3.479111679593026,Sn1I4,0.019343073749999995,298.93892244990985,,-0.59029999,-11.86615424,520.0,0.0001438
mp-571442,148,50.95024311095932,4.011727950807617,Y2I6,0.0,388.7706867106586,,0.32454865,-33.57114695,520.0,6.34e-05
mp-571514,156,113.49075153656997,5.042438988789954,Cd8I16,0.0010402318888889095,964.80692609017,,1.00228579,-45.80914508,520.0,2.5625e-06
mp-571519,156,98.37838243154238,5.0484422411662235,Cd7I14,0.001040205460317578,843.2021898683425,,1.01223205,-40.0830025,520.0,3.2857142857142857e-06
mp-571535,156,113.11458406557244,5.04440574638776,Cd8I16,0.0010346339722224762,964.4307586191725,,0.98175049,-45.80927943,520.0,2.6625e-06
mp-571538,156,141.36587462885882,5.0445202140236605,Cd10I20,0.0010796718888888002,1205.5110928208587,,0.99053207,-57.26024815,520.0,8.2e-07
mp-571539,156,113.55208932279413,5.042118435138929,Cd8I16,0.0010198077222223212,964.8682638763942,,0.98998771,-45.80963526,520.0,2.6375e-06
mp-571558,143,81.37383272032756,5.884106927319743,Hg3Br6,0.04105815611111119,305.1210436842898,,-0.87006779,-14.6122277,520.0,5.0799999999999995e-05
mp-571559,156,143.1680327157119,5.036990252026506,Cd10I20,0.0010017445555554616,1207.3132509077118,,0.99141998,-57.26258597,520.0,1.05e-06
mp-571567,156,209.45681409738188,4.586259372006264,Cd8I16,0.0007432668888887051,1060.772988650982,,0.28342805,-45.81627224,520.0,9.225e-06
mp-571568,156,112.71623512004578,5.046490151112869,Cd8I16,0.0010853510555557389,964.0324096736458,,0.99090981,-45.80806222,520.0,2.5625e-06
mp-571569,156,127.05777250013011,5.045679879420878,Cd9I18,0.0010343572592592665,1084.7106235753301,,0.98319291,-51.53544683,520.0,4.888888888888889e-07
mp-571578,156,145.337098470897,5.0279569962985375,Cd10I20,0.0009248652222224596,1209.482316662897,,0.96405978,-57.26489235,520.0,1.22e-06
mp-571579,156,207.13789173860687,4.783533288896224,Cd10I20,9.706588888880319e-05,1271.2831099306068,,0.61282826,-57.28972633,520.0,7.660000000000001e-06
mp-571583,156,141.29657221224488,5.044810230052865,Cd10I20,0.0010464658888891254,1205.4417904042448,,0.98861264,-57.26124433,520.0,1.0900000000000002e-06
mp-571592,156,126.76379247467389,4.974010535716274,Cd8I16,0.0004706798055555961,978.0799670282739,,0.87516133,-45.82281433,520.0,3.15e-06
mp-571593,156,171.97627599018347,5.036383161935857,Cd12I24,0.000952512166666919,1448.9505378205836,,1.01208594,-68.71687553,520.0,1.2591666666666665e-05
mp-571595,156,151.84767038842483,5.001036710883994,Cd10I20,0.0006153528888890314,1215.9928885804247,,0.92604249,-57.27417772,520.0,1.33e-06
mp-571603,156,193.84153088773587,4.961511922353939,Cd12I24,0.000427504388888833,1470.815792718136,,0.85327495,-68.73577581,520.0,2.5833333333333333e-07
mp-571605,156,144.7535266308264,5.0303841425989955,Cd10I20,0.0009297952222222516,1208.8987448228263,,0.96944904,-57.26474445,520.0,1.15e-06
mp-571607,156,170.86966954179843,5.0402325368323995,Cd12I24,0.001043540777777796,1447.8439313721985,,0.98102173,-68.7135985,520.0,4.6666666666666666e-07
mp-571613,156,193.6151387497639,4.962275729907041,Cd12I24,0.000445167166666538,1470.589400580164,,0.85454187,-68.73513995,520.0,2.5833333333333333e-07
mp-571615,156,150.18928635318161,5.007866492472143,Cd10I20,0.0006850448888888749,1214.3345045451815,,0.93041147,-57.27208696,520.0,1.3600000000000001e-06
mp-571616,156,231.57044089531837,4.693333011231874,Cd10I20,0.00023713222222210284,1295.7156590873183,,0.44651424,-57.28552434,520.0,1.174e-05
mp-571635,156,299.0319723122343,4.630356107142812,Cd12I24,0.0005198574444442716,1576.0062341426344,,0.36191929,-68.7324511,520.0,5.005e-05
mp-571646,156,176.86795996239084,5.019437447729843,Cd12I24,0.000858853833333395,1453.842221792791,,0.96344885,-68.72024723,520.0,3.4166666666666664e-07
mp-571654,156,184.61552252771662,4.992830525537852,Cd12I24,0.0006415899444442985,1461.5897843581167,,0.91934155,-68.72806873,520.0,3e-07
mp-571660,156,218.23625952503858,4.880563630960934,Cd12I24,9.093605555565709e-05,1495.2105213554387,,0.74858743,-68.74789227,520.0,2.3333333333333333e-07
mp-571667,156,228.54898219531674,4.907009830279732,Cd13I26,0.00013914432478645544,1611.0814675713168,,0.81344488,-74.47500317,520.0,7.053846153846155e-06
mp-571668,156,181.9120452413208,5.002082791362258,Cd12I24,0.0007390960555557768,1458.886307071721,,0.9192464,-68.72455851,520.0,2.5e-07
mp-572124,35,-43.15300126125362,2.279928729744978,Sr8Ti16O40,0.2191825895312487,1534.4501291387462,,-1.21757119,-522.36251489,520.0,5.23875e-05
mp-572670,14,144.7732099704848,1.6538087434487891,B16S24,0.010040278309999096,946.371719707808,,0.09538755,-223.08602997000003,520.0,3.1625e-06
mp-573495,14,237.05315287288613,2.6671766256500415,I8Cl8,0.10185018749999997,808.6481105987405,,-0.91687185,-27.76409858,520.0,1.5e-07
mp-573588,166,60.71212380454739,5.001315073082496,Cd4I8,0.007345793555555424,486.3700836361418,,0.92221076,-22.8289058,520.0,2.62e-05
mp-573608,166,56.38861231974806,5.047257887623077,Cd4I8,0.007732771055555698,481.94288553212226,,1.03076177,-22.82426207,520.0,1.625e-05
mp-574663,160,83.14857068326387,4.780775961983839,Cd4I8,0.006525921888889119,508.8065305148582,,0.58327066,-22.83874426,520.0,3.8e-06
mp-580886,166,7.32467515486276,5.816178153808125,Zr2I2N2,0.029719405000001586,132.5507926849358,,4.5246068,-44.88086729,520.0,3.845e-05
mp-580941,186,19.797997141312976,5.286906570367915,Ag4I4,0.04718977749999986,294.9544720499248,,1.17384578,-19.29524542,520.0,1.2725e-05
mp-582587,61,160.89683860772857,2.6973346014375026,Sb8H48C16I8,0.10895901689583454,1372.7562753677287,,-0.25712668,-366.0564346,520.0,0.0
mp-582619,156,81.02177527843651,5.071146464164526,Cd6I12,0.11905573411111114,719.5089061936366,,,-32.23257977,520.0,0.10085499999999999
mp-583712,176,-205.2833321316789,1.271217526335655,Si18N24,0.6330016485714287,1099.477743898841,,-1.21948593,-317.04960219,520.0,3.8333333333333335e-07
mp-603959,14,-0.5088722338001617,3.1254940009660004,Sr4Cr4O16,0.08786330083333382,432.71047434338163,,-1.20614046,-162.18045094,520.0,3.1175e-05
mp-653981,229,23.72095515850947,3.41743679217133,Zr6Ni1Cl15,0.0,552.8749282225707,,3.38057748,-120.87966789,520.0,0.8532649
mp-676400,1,22.253568408124714,5.514923045890144,Tl1N1O2,0.06993468435361017,75.39187294528102,,1.71957691,-22.23035497,520.0,5.1e-05
mp-684640,163,545.1832376487978,3.0214777371194823,Mo8Cl24,0.04367715874999778,889.4333607057149,,1.55637357,-157.27705852,520.0,3.0000838625
mp-695850,12,11.845207113376162,3.6415670621479883,Cd1Cl2,0.0021292066666664944,83.59176969711656,,-0.92901984,-7.872644560000001,520.0,3.2e-05
mp-696590,164,-0.35572883834208824,1.9785900702055528,Ti1H8N2F6,0.005455510588241452,166.1171268104345,,-3.13278302,-91.19092207,520.0,1.95e-05
mp-703295,62,21.44541856127853,4.206062147683152,Sr4H8I8O4,0.0007942937500002856,567.6294253912786,,1.68316648,-98.98456571,520.0,1.0575e-05
mp-704810,12,6.927606611083206,2.232343996884275,K8Cr8O28,0.06944372340909144,875.3221079700974,,-1.980738,-271.22440757,520.0,7.025e-05
mp-707727,62,11.084213184740804,1.346395575698759,H8C8N8O4,0.22442854965277892,345.57716823974084,,-2.21753542,-193.60730492,520.0,0.001246975
mp-733610,15,13.26168561815831,1.590812952040233,H14C6N6O10,0.02946966386574079,344.6828019962933,,-1.30332811,-230.21434348,520.0,0.00087085
mp-752602,14,2.4066202017388605,4.4205572665556465,Bi4Br12,0.0,674.187621355559,,-1.1230946,-47.54155298,520.0,0.00052125
mp-753712,129,0.5472627371090084,5.13702985668141,Y2I2O2,0.0,149.86445500635577,,2.73507982,-42.12259678,520.0,0.0001055
mp-753727,186,0.9956565680638505,4.288806336892901,Y6I14O2,0.06682586363636744,906.8123703865197,,1.34911956,-107.79472168,520.0,0.0015848
mp-754031,166,0.5336233018212795,4.69290752125053,Y2Br2O2,0.0,130.78586065823183,,0.99777673,-43.56869811,520.0,2.205e-05
mp-754038,166,2.0517899550531524,5.2704520924774165,Y2I2O2,0.06417990000000007,146.07061525552348,,3.4667883,-41.73751738,520.0,0.0001008
mp-754382,191,-11.1312153575943,0.4211851109167815,He1,0.00438156,15.780417470396529,,-14.02737936,-0.02108191,520.0,1.55e-05
mp-754503,166,2.0535420965101707,5.278218941598079,Zr2Br2O2,0.10640156230769193,117.74136563558915,,4.97171827,-43.51242449,520.0,0.00024035
mp-754645,14,3.126799197100695,1.9169152153570124,Mg4Cl8O4,0.08781423800000265,385.3466431369999,,-0.27670465,-61.18927652,520.0,2.475e-05
mp-754815,12,13.191967249861193,3.4816064533085394,Y2Br6,0.0,313.46608324861444,,-1.62504356,-38.07605319,520.0,5.3e-06
mp-754824,194,0.23667522414694986,4.114690238360893,Sr2O2,0.05116038999999972,83.63402785329403,,0.6869966,-24.00457132,520.0,2.9e-06
mp-755293,139,-0.1225148505660627,4.634546783163825,Sr4Sb2O1,0.0,218.56027470826166,,3.22574206,-31.00206439,520.0,0.0001395
mp-755552,123,0.0,3.2431417414973485,Li1Y1S2,0.07558357749999978,81.91063668977206,,2.92490822,-23.73764491,520.0,3e-06
mp-755703,15,2.6128180037748763,4.163917474201234,Li2Sb2O4,0.03338697812500069,128.17174849094795,,2.6798968,-44.77997367,520.0,3.31e-05
mp-755829,15,1.5730641413035187,3.8284658405712046,B4Sb4O12,0.04677055691666787,313.2766162822356,,1.8078899,-138.88690801,520.0,1.0475e-05
mp-757594,169,4.516864075955141,4.882321691696473,Os6O12F24,0.0,608.5751701690804,,-2.76939232,-230.56987425,520.0,3.293333333333333e-05
mp-758989,14,2.9881351354174512,1.9655718631574677,P8H4N4F16,0.0683240181815492,516.8756096496451,,-1.18806298,-172.93019785,520.0,0.000212425
mp-759069,145,1.278895383407928,1.5029116209185633,B6H18O18,0.0026942036904786804,409.908908449372,,-2.65555151,-255.56902257999997,520.0,0.0004693833333333333
mp-759866,14,0.21066415071288702,2.463278802303077,Te4H12C4Cl12,0.023633361953125043,671.403432336522,,-0.55430292,-124.52283915,520.0,0.0005738
mp-760482,64,-45.17435987361553,1.3363114310639157,F4,0.0,94.43185017475766,,-6.64719956,-7.55003962,520.0,3.03e-05
mp-765838,64,8.242109139624489,4.317431359481247,Fe2Co4O12,0.11237136465277686,207.46609610994872,,0.89108667,-104.25778828,520.0,6.0001025
mp-767158,64,3.5156647445164424,3.9999210952756985,Mn4Cr2O12,0.07376162833332778,214.10465390954886,,0.86804589,-128.69041148,520.0,7.9998295
mp-768680,5,1.7429710463854917,2.1314620277631344,Cr1P2S7,0.032714580875001786,263.6331864771679,,1.56067445,-52.15691985,520.0,1.9979453
mp-769218,5,5.70048867638522,2.6351994889479387,Ni1P2S6,0.09587341194443955,197.25264527764259,,3.09254344,-42.48333535,520.0,0.0002351