material_id,spacegroup.number,delta_volume,density,full_formula,e_above_hull,structure.lattice.volume,band_gap.optimize_structure_gap,efermi,final_energy,encut,total_magnetization
mp-5588,166,5.588427918,4.208370759,Ba1Si1F6,0,110.2468109,,-0.91811107,-46.75927472,520,0.0001306
mp-5589,164,-14.60132255,4.705655786,Sr1Mn2P2,0.097136423,91.55286093,,5.1948503,-33.96544435,520,4.1548474
mp-5590,189,2.649381057,4.447065706,Y3Mg3Ga3,0,204.9230794,,3.7123588,-37.92344756,520,1.50E-06
mp-5594,12,3.910008565,3.294518835,Sc2Si2O7,0,130.0795813,,2.45691729,-93.0176857,520,7.00E-07
mp-5602,227,13.5963746,6.352732792,Cr4Hg2Se8,0,324.3439691,,3.21790373,-73.33310191,520,0.83452445
mp-5606,123,3.171411086,5.761774181,Al1Tl1F4,0.001787897,88.58047743,,0.86660386,-31.59307607,520,0
mp-5615,189,5.761567626,5.629999752,Ca3Ag3As3,0,197.2010829,,4.37766947,-35.58807754,520,4.47E-06
mp-5618,12,6.861184457,3.799747228,Mg2As2O7,0,135.6702574,,1.61185265,-67.42802319,520,0.0002281
mp-5621,215,-9.666501825,4.041801612,Nb1Cu3S4,0,169.186248,,2.91644429,-43.71548137,520,0.0006172
mp-5639,227,-6.678073521,3.448249725,Mg4Si2O8,0.071839282,135.5043305,,3.91389513,-95.43215725,520,9.30E-06
mp-5652,12,5.612275893,3.890549141,Y2Si2O7,0,147.6683073,,1.87405458,-93.92910128,520,2.00E-07
mp-5659,194,25.95672434,4.474382171,Ti6Si2C4,0,145.2627853,,7.52817741,-105.0196034,520,0.0002069
mp-5670,227,3.140032364,3.649564901,Li2Ti4O8,0,151.6708795,,5.01752233,-114.9228231,520,0.00312745
mp-5676,216,0.946385577,10.19948896,Mn1Sb1Pt1,0,60.52838553,,6.77170131,-20.45175038,520,0.0003544
mp-5679,31,10.79390043,4.432824782,Cd2S2O8,0.010633028,156.1886917,,0.80605293,-66.01335863,520,0
mp-5693,166,2.946108414,3.184246349,Na1Cr1S2,0.001565617,72.54694101,,4.10875279,-22.97338404,520,3.0001338
mp-5707,4,15.52815914,3.507441799,Cs2As2F8,0,268.7401936,,-1.77473281,-55.36673869,520,0.00013145
mp-5716,2,11.82837139,5.290553723,Ba1Mo6S8,0.001788928,304.2915915,,5.28805193,-113.5022179,520,2.20E-06
mp-5723,189,-12.3652619,6.078779521,Zr3Al3Ni3,0,144.9703478,,6.49774198,-60.05130156,520,3.39E-05
mp-5729,186,5.1692154,7.216838983,Y2Ag2Sn2,0,145.1808978,,5.52587013,-30.29191446,520,6.67E-05
mp-5748,225,0.367530007,9.530657163,Hf1Al1Ni2,0,56.25203661,,7.40406892,-27.80728863,520,0.0004666
mp-5756,31,9.329083674,5.319838806,Cu6P2Se8,0,335.5213064,,4.16286488,-65.6248331,520,0.0002072
mp-5773,166,8.535932008,6.628814848,Ba3Ru3O9,0,215.2287044,,4.21732364,-104.6967801,520,0.000176267
mp-5777,38,3.394783223,5.71337634,Ba1Ti1O3,0.000517366,67.77511736,,2.80764302,-40.05339267,520,4.58E-05
mp-5778,225,-1.166186982,6.773328299,Al1V1Fe2,0,46.48524908,,7.27306207,-31.44975414,520,1.91E-05
mp-5784,36,6.999986433,3.198914492,Na4Ge2O6,0,172.980716,,0.03965443,-65.7659816,520,2.13E-05
mp-5794,227,6.515898975,5.900598064,Zn2Ga4O8,0,151.3203351,,1.73344747,-79.19053491,520,2.66E-05
mp-5795,164,0.711802347,2.885547059,Ca1Mg2N2,0,67.15788264,,3.81057733,-25.86601836,520,9.00E-07
mp-5798,166,3.628699642,2.988590616,Al6C3N2,0.090258836,125.5352407,,8.05026806,-72.09515502,520,1.80E-06
mp-5811,221,8.968746159,5.596300262,Cs1Pb1F3,0.004570761,117.8280507,,1.55057279,-22.86037071,520,0
mp-5827,221,-0.101200211,3.836496697,Ca1Ti1O3,0.064311943,58.83987623,,3.6139239,-40.14237192,520,0
mp-5839,63,7.048534125,3.386625555,Ti2P2O8,0.074235939,140.0737534,,5.30327438,-96.136912,520,1.0001323
mp-5841,123,5.114035711,2.817457018,Rb1Cu1C2,0.310112099,101.98264,,-0.36797136,-22.39279473,520,4.40E-05
mp-5853,36,0,2.932964242,Li4Si8N12,0,238.0880802,,5.42252261,-178.5359255,520,0
mp-5858,148,8.633796806,5.883859202,Cd1Pt1F6,0,118.9513497,,-1.39761512,-31.7083165,520,5.00E-07
mp-5859,184,114.6209355,1.619977954,Al12P12O48,0.010523002,1500.076358,,-2.26484687,-538.2466701,520,0
mp-5866,216,-0.421168716,7.082842832,Mn1Cu1Sb1,0.122376615,56.32408135,,7.09246254,-17.08657085,520,4.362954
mp-5874,62,20.40914644,8.353968482,Tl4Ag4Te4,0,349.7214954,,4.47695501,-35.97834525,520,0.000147275
mp-5878,221,3.70129046,3.802594491,K1Zn1F3,0,70.52585357,,-1.35959445,-20.80617398,520,3.26E-05
mp-5893,221,14.79673828,4.107008863,Ca1Si1O3,0.244747967,46.96630668,,6.37168426,-36.22744849,520,9.00E-07
mp-5910,194,1.950239784,5.281942908,Ca2Cu2Sb2,0,141.7125999,,5.96448794,-24.495675,520,1.70E-05
mp-5918,11,1.096816465,11.39762354,Hf4Ni2P2,0,130.1455601,,6.89691338,-70.00250832,520,7.50E-07
mp-5920,216,0.812549406,3.245853546,Li1Al1Ge1,0,54.51609355,,3.83439937,-11.16196402,520,1.00E-07
mp-5921,225,0.799435985,10.10965297,Ta1Al1Ni2,0.012493751,53.43410729,,7.95128773,-29.00476086,520,4.90E-06
mp-5924,148,5.973618863,3.676019749,Mg2Si2O6,0.115231253,90.69557125,,4.793455,-70.81262212,520,0
mp-5942,14,27.15935879,2.724050124,Na4As4S8,0,395.1117013,,2.19821862,-66.54536824,520,0.000207725
mp-5944,216,2.694422142,9.205392751,Mn1Sb1Au1,0.119427911,67.40447651,,6.15200048,-16.41419379,520,4.654478
mp-5955,225,14.85435363,2.828660366,Na1Sb1F6,0,151.8910469,,-4.11470189,-37.06577655,520,2.58E-05
mp-5962,129,1.241453364,2.882363402,Na2Mg2As2,0,140.818505,,2.30011909,-18.97681324,520,4.19E-05
mp-5966,55,10.52795418,7.260588974,Cd4Sn2O8,0,186.4087922,,2.95185126,-69.84160043,520,3.50E-07
mp-5967,216,0.248663691,7.416113133,Ti1Co1Sb1,0,51.17682538,,7.31641719,-21.11261012,520,2.19E-05
mp-5971,180,7.484405919,12.27174168,Y3B3Pt6,0,198.8649061,,5.99951449,-87.88657419,520,2.00E-07
mp-5986,99,2.071761756,5.748617573,Ba1Ti1O3,0.002225496,67.35962985,,3.09468543,-40.04485202,520,5.90E-06
mp-6023,147,21.01781657,4.862794672,Tl2Sn1As2S6,0,296.9870566,,3.07436308,-46.19554068,520,0.0002523
mp-6026,148,3.905423011,2.636118967,Na2Mg1C2O6,0,119.8748868,,1.30170871,-73.05047581,520,1.20E-06
mp-6050,15,40.42458383,3.38104479,Ag4C4S4N4,0.161136696,326.0145513,,0.41829976,-94.17745869,520,1.89E-05
mp-6058,225,-279.5595214,2.707313142,K2Na1Sc1F6,0,159.5532109,,-2.55489386,-54.53794323,520,2.30E-05
mp-6059,225,-216.4550227,3.78711707,Cs2K1Y1F6,0,222.6577096,,-2.51901187,-54.15429478,520,1.07E-05
mp-6065,225,3.501114349,6.053917065,Sr2Ga1Sb1O6,0.038670833,126.9200784,,3.8524237,-62.27055014,520,1.00E-07
mp-6074,225,-250.3129244,3.270872258,K1Rb2Ti1F6,0,188.7998079,,2.89652161,-52.83892454,520,0.9998487
mp-6088,129,-0.181032873,6.124615695,La2Cu2S2O2,0,135.842444,,7.37382423,-52.70133099,520,2.30E-05
mp-6110,225,-0.29929243,5.401711798,Sr2Y1Sb1O6,0.051649246,148.1414651,,3.0328576,-70.01912194,520,4.10E-06
mp-6178,225,8.643892288,3.915164005,Cs2K1Ti1F6,0,197.9697911,,3.42410182,-52.63471192,520,1.0000156
mp-6179,173,10.37225912,2.273292363,K2Li2S2O8,0.000189105,207.5982451,,-0.42686619,-80.64519203,520,0.0001891
mp-6188,129,-2.575026551,9.223608479,Lu2Ni2B2C2,0,92.3496571,,5.58657442,-56.95441865,520,0.00045205
mp-6204,225,-21.98496312,4.089243544,Cs2Na1Sc1F6,0,181.8188065,,-1.89922984,-53.83319492,520,0.0001039
mp-6226,161,64.08714888,3.722965574,Na2Sn8P6O24,0,698.2480521,,1.88942212,-263.3524088,520,2.04E-05
mp-6252,87,5.809530328,5.876270548,Sr2Cu1Te1O6,0.036808808,130.6617897,,4.40490211,-58.2549744,520,1.0008892
mp-6253,173,9.014803064,2.175749828,K2Li2Be2F8,0,200.0280483,,-3.28609685,-72.11531947,520,0
mp-6270,225,5.861012078,6.705227092,Ba2Li1Re1O6,0,139.6237951,,1.85088959,-71.17462435,520,5.00E-07
mp-6278,2,8.9630938,4.732321714,Zn2Cu1As2O8,0,165.6925643,,1.86481187,-71.15261393,520,0.999854
mp-6304,87,4.166691261,6.056970248,Sr2Ga1Sb1O6,0.026288995,126.8561008,,3.67377276,-62.39436852,520,0
mp-6325,164,7.458483142,7.370083545,Ba3Mg1Ta2O9,0,212.2799041,,2.49665995,-120.6641302,520,0.0003351
mp-6356,31,14.75474934,4.546701276,Cd4Ga2Ag2S8,0,387.6232515,,1.57047433,-57.63616839,520,0.0001522
mp-6384,11,18.96970083,2.696207294,Rb2S2O4F2,0,207.5883782,,-1.19419629,-52.01182223,520,0.0002599
mp-6425,148,31.65621456,3.49165895,Li6In4P6O24,0,509.2180669,,1.41933796,-260.6379568,520,1.40E-06
mp-6428,225,7.069238407,6.163485529,Ba2Y1Ru1O6,0,151.0414473,,3.17957587,-73.47400257,520,3.0007206
mp-6459,148,0.192246257,2.760183213,Ca1Mg1C2O6,0,110.9363777,,1.59054842,-73.32402222,520,0
mp-6473,176,16.23426798,3.096097717,Ca10P6O24F2,0,540.9480241,,1.89292133,-301.3381136,520,0
mp-6474,164,9.413165749,5.940851818,Ba3Mg1Nb2O9,0,214.1322442,,2.33586958,-114.9287861,520,0.0002187
mp-6476,161,20.19418423,6.044278168,Ag6Se2N2O6,0.295517956,255.2615118,,1.57810684,-70.62762521,520,0
mp-6478,15,7.352391911,5.442086855,Li2Ta2Ge2O10,0.002938034,207.8087075,,0.31476568,-123.4925202,520,6.60E-06
mp-6492,225,6.385359537,6.220451757,Ba2Y1Sb1O6,0,155.1813864,,3.05259085,-70.79649806,520,8.00E-07
mp-6494,166,6.78225184,2.489990997,K2Ca1C2O6,0,158.9137606,,0.6994679,-74.55366254,520,0
mp-6498,121,-0.961291602,4.377157525,Co1Cu2Ge1S4,0.060926322,146.7857595,,4.60003425,-38.83713661,520,2.8908603
mp-6504,166,4.522263013,3.689018073,Ba1Mg1C2O6,0.005152767,126.7791264,,1.8261127,-73.12177356,520,7.83E-05
mp-6514,129,4.222455915,4.795748268,Na2La2Ti2O8,0.009039156,189.5799676,,3.80180659,-109.6364114,520,1.35E-05
mp-6521,129,4.376880559,4.862618808,Li2La2Ti2O8,0.028936689,176.011861,,3.94190214,-111.8846961,520,0.0001339
mp-6560,11,15.59806407,2.182349782,K2S2O4F2,0,185.9026324,,-0.93825882,-52.24908332,520,1.73E-05
mp-6562,123,10.09427653,6.582037102,Ba2Cu1Hg1O4,0.021274947,152.0733364,,2.58061355,-40.90418502,520,0.0007035
mp-6573,162,25.52921587,2.705796495,Co1Ag3C6N6,0.242374308,330.563069,,-2.27497543,-114.9535474,520,0.0001734
mp-6586,225,-298.5533608,2.860807867,K2Na1Al1F6,0,140.5593716,,-1.79489668,-50.75084857,520,2.20E-06
mp-6613,225,5.90412834,6.819521359,Ba2Y1Ta1O6,0.001596104,155.9614021,,2.1590043,-83.43718131,520,8.90E-06
mp-6615,62,83.7308898,1.979481145,C8Se4S8N8,0.303112445,654.7419738,,-0.9179412,-175.6737145,520,0.0001629
mp-6625,129,-1.946826616,6.425298418,La2Ag2S2O2,0.001263556,152.3945174,,5.50598192,-49.7720166,520,2.70E-06
mp-6628,146,11.75212891,3.653890758,Cs1Cd1N3O6,0.039219408,174.2086379,,0.30476797,-63.75276663,520,1.47E-05
mp-6660,12,6.958032261,4.304459793,Ba2Na2B2O6,0,169.0652227,,1.52694976,-79.65583707,520,0
mp-6680,123,14.04358963,6.062367231,Rb1Ca2Ta3O10,0.026412636,237.8797046,,1.44409274,-136.257357,520,0.0002068
mp-6685,216,0.802579921,3.982656565,Cr4Fe1Cu1S8,0.044590997,243.4508452,,4.98985827,-92.44407765,520,14.8703761
mp-6686,225,-1.197175659,3.292584973,K2Na1In1F6,0,166.4252354,,-2.12138708,-44.96462203,520,8.30E-06
mp-6739,225,-23.52832598,6.61355554,Ba2Ca1Os1O6,0,150.8893179,,3.63747924,-69.34738604,520,1.9901845
mp-6782,146,4.723845317,4.888718236,Li2Zr1Te1O6,0.012371227,111.6495452,,2.51024644,-66.02742572,520,2.00E-07
mp-6798,225,6.550679298,6.448881074,Ba2Na1Re1O6,0,149.3063449,,1.84236673,-70.07278841,520,0
mp-6799,229,1.462916684,2.595017096,Li1Ca4B3N6,0,181.5550396,,2.80071107,-96.25138768,520,1.00E-07
mp-6800,159,11.60086125,2.274654792,K2Li2S2O8,0,207.4739019,,-0.45554027,-80.6478395,520,0
mp-6813,161,43.35849948,3.006487576,K2Ca20P14O56,0,1220.268253,,1.77279818,-659.6915857,520,5.58E-05
mp-6847,123,6.400771193,3.622383813,K1Y2Ti2S2O5,0.031342004,209.3886559,,4.62523255,-95.56125258,520,1.0046021
mp-6854,225,7.831269774,2.600131109,Cs2Li1Mn1C6N6,0.126407658,308.9688057,,0.1353731,-120.1480026,520,1.9996577
mp-6867,187,2.146714529,2.52322356,K1Ca1C1O3F1,0,104.1009813,,0.38086192,-46.12120226,520,8.32E-05
mp-6870,155,5.377801454,2.292830795,K1Be2B1O3F2,0,111.4799082,,-1.53299586,-59.51340142,520,1.30E-05
mp-6879,123,10.27377949,6.158074509,Ba2Ca1Cu2Hg1O6,0.015737043,199.1140729,,3.02877343,-64.07572354,520,1.09E-05
mp-6907,221,-52.08920876,3.492155232,Sr1Si1,0.358154407,55.0186023,,3.85263004,-7.33169023,520,6.10E-06
mp-6908,189,1.671481076,4.310719735,Y3Mg3Zn3,0,206.419289,,3.07755071,-30.61993758,520,0.000403133
mp-6912,194,11.46214454,7.890576718,Mn4Sb2,0.232327073,97.49370275,,7.8327856,-43.63335293,520,3.76146435
mp-6913,194,-0.028601786,4.905118486,Y2N2,0.08809957,69.67836045,,3.14409236,-36.0036473,520,1.40E-06
mp-6915,162,5.82113289,5.869564121,As2Pd1O6,0.015715031,99.65660242,,4.37774594,-52.3870955,520,0.0084668
mp-6919,186,0.057082976,9.098690923,Sc2Sn2Au2,0.068553653,131.6330709,,6.79806092,-31.38651802,520,6.55E-06
mp-6920,160,16.05879173,2.055139927,K1N1O3,0.003731165,81.69069585,,-0.99836944,-29.31153811,520,0
mp-6922,180,5.637797501,2.371128183,Si3O6,0.012644896,126.2339926,,0.35634103,-71.12413909,520,0
mp-6929,12,8.082963017,3.435926233,Ca2As2O7,0,165.2817932,,0.57510129,-70.74534089,520,0.0003285
mp-6930,154,21.66868968,2.489913584,Si3O6,0.010922753,120.2117935,,0.77403587,-71.13963837,520,0
mp-6931,164,1.809036205,2.877424936,Sr1Al2Si2,0,114.1223048,,5.00995915,-21.51148731,520,5.20E-06
mp-6933,225,-1.257864969,6.465945879,Mn1N1,0.092556665,17.70590766,,7.58722552,-17.89218582,520,2.997719
mp-6938,221,0.838283371,10.0427937,Zn1Rh1,0,27.83018418,,4.37824614,-9.39131997,520,8.10E-06
mp-6939,70,3.930747851,10.5186118,Sr2B4Ir4,0,155.8700495,,5.90806607,-71.70489807,520,5.25E-06
mp-6944,227,0.723870355,3.906070499,Li4Ti4O8,0.026764451,147.6123694,,6.25773222,-120.5319331,520,2.75E-05
mp-6948,129,3.808873278,2.509714068,K2Na2O2,0.014896495,103.3323221,,0.86254945,-21.35741473,520,8.60E-06
mp-6949,167,6.878860514,4.44509209,In2F6,0,128.3674382,,-1.7730607,-36.86829783,520,1.91E-05
mp-6950,12,12.74872812,5.803265635,Ba2Sb6,0,287.6306541,,5.14185902,-32.96494424,520,4.50E-07
mp-6951,221,6.11896804,4.635427,Rb1Cd1F3,0,91.30296804,,-1.84291119,-19.77858812,520,0.0001306
mp-6953,164,-14.93239687,4.160923101,Ca1Mn2P2,0.067811141,84.56558657,,5.49122425,-34.56264612,520,3.42E-05
mp-6954,194,6.427282838,5.842632754,Sr2Ag2As2,0,153.7067444,,3.69883045,-23.11287466,520,1.55E-06
mp-6958,221,1.833181305,9.12575392,Tl1Sb1,0.183258911,59.3456373,,6.58508427,-6.14365446,520,5.35E-05
mp-6959,164,7.940566343,3.752303025,Ga2Ni1S4,0.053985513,144.4443433,,4.25751087,-32.04087103,520,1.95018
mp-6968,225,13.74570521,4.22460791,Cs2K1Cu1F6,0,189.6317502,,-1.08040235,-41.35719336,520,2.0001146
mp-6972,166,1.224683536,4.863999747,Y1Cu1O2,0.001100094,62.9702963,,2.44881827,-29.96849876,520,4.44E-05
mp-6973,129,4.494410064,3.336634651,Cs2Na2S2,0,187.0838842,,1.27409753,-18.99520374,520,3.03E-05
mp-6977,194,0.843973518,2.664634788,Be6N4,0.02943697,68.61171736,,4.45263339,-66.22406841,520,0
mp-6980,156,-0.315278164,3.911385284,Sc1Cu1S2,0,73.28913125,,5.06286717,-23.8305265,520,6.70E-05
mp-6985,225,0.613957359,4.58263977,Ti1,0.063424163,17.34481134,,5.8013039,-7.83370319,520,0.000229
mp-6986,225,0.09189072,15.91498694,Ta1,0.24569327,18.87975278,,5.48736509,-11.60985192,520,4.82E-05
mp-6987,66,24.00036369,5.106505179,Sr2Ga4Te8,0,479.6200301,,3.08429932,-51.08475366,520,1.10E-06
mp-6988,216,-3.795669308,6.127071943,Fe1N1,0,18.93097975,,5.69244033,-17.03825707,520,0.0005713
mp-6989,11,11.81305587,4.753663835,Ba2Se2O6,0,184.6390101,,1.06090495,-59.532354,520,8.64E-05
mp-6999,2,42.88387235,2.218031116,Sc2P2S8,0,305.7350483,,1.77092814,-67.69993729,520,0.00016165
mp-7000,152,7.255164904,2.487349848,Si3O6,0.010587689,120.335697,,0.85650344,-71.14265395,520,0
mp-7002,166,1.226036709,3.89251959,Na1Ti1O2,0.007797074,43.87792645,,6.25166933,-28.88645343,520,0.8115589
mp-7006,221,14.36248521,5.550148195,Sr1Nb1O3,0.014877264,68.37186564,,5.70542731,-40.44490225,520,0.000593
mp-7008,163,71.14761408,4.38724897,Ga2Ag2P4Se12,0.015198223,539.9558523,,2.02637155,-79.40790431,520,9.77E-05
mp-7017,166,-4.01112311,4.862637602,Na1Nb1N2,0.01321857,49.14358099,,3.85307113,-30.93525681,520,0
mp-7025,194,15.16689214,6.423053405,Rb2Te2Au2,0.006497957,212.0107165,,2.84455041,-18.85683809,520,5.70E-06
mp-7027,167,5.293899321,5.294857341,In2B2O6,0,108.9036873,,3.89232057,-69.01772932,520,7.00E-07
mp-7029,96,25.94067579,2.177904826,Si4O8,0.003131998,183.2446021,,-0.24093235,-94.94634022,520,0
mp-7032,189,2.168143422,10.70911739,Hf3Mo3P3,0,142.0662931,,8.16364042,-87.35790664,520,0.000104367
mp-7035,15,9.909138663,3.625424828,Ca2Mg2As2O8F2,0,203.6389376,,1.40122631,-99.73218871,520,3.17E-05
mp-7038,164,30.26678926,7.34295416,Tl2Pd4Se6,0,295.8384438,,3.48773779,-51.09234515,520,2.50E-07
mp-7041,166,2.99620113,6.264985245,Ca1Hg1O2,0,72.27053993,,0.77389824,-19.19545587,520,0.0001174
mp-7066,62,-30.80730984,6.237468781,Sc4Ni4Ge4,0,187.726974,,5.67983798,-76.7535698,520,5.43E-06
mp-7067,164,4.605126213,5.5289677,Ca1Cd2As2,0,124.5616384,,3.15285905,-16.12228491,520,5.70E-05
mp-7073,194,6.068056449,3.983460381,Ba2Ti2S6,0.00487428,234.5987534,,3.77191932,-60.89999763,520,9.95E-06
mp-7077,63,17.45197318,4.98093746,K2Au2S2,0,178.7776373,,1.06564768,-21.59367399,520,2.35E-05
mp-7079,5,5.208493027,3.51835368,Ca1Zr1Si2O7,0.003412042,141.338728,,1.89120259,-89.78047531,520,1.64E-05
mp-7080,189,-1.059675682,3.279182536,Li5Ni3N3,0,128.0175975,,2.71789327,-55.95642772,520,1.43E-05
mp-7084,62,-2.164022284,2.831609002,Sr4Ca4Si4,0,365.4241576,,2.9867199,-41.87716595,520,5.90E-06
mp-7087,194,9.978267761,1.922150318,Si4O8,0.011596209,207.6264794,,-0.96092561,-94.84476969,520,1.25E-07
mp-7088,164,0.717496541,14.76866752,Ta2C1,0,42.0407781,,6.43313328,-34.73752087,520,2.30E-06
mp-7089,129,6.248290004,3.134764363,K2Mg2Sb2,0,196.1684215,,2.52865846,-17.20021341,520,5.95E-06
mp-7090,129,2.126235485,3.351197549,Na2Mg2Sb2,0,167.5353602,,3.23277513,-17.16948033,520,2.20E-05
mp-7092,62,0.461124535,4.224308966,Ti4Si4,0,119.4250633,,8.21161811,-59.43842999,520,2.38E-06
mp-7094,88,9.81026234,6.606526852,Re2Ag2O8,0,180.0019517,,0.1908584,-85.15770719,520,5.00E-08
mp-7096,166,-12.32911342,4.5652978,Fe3S4,0.221468488,107.5897273,,5.41075052,-43.91291135,520,0.0005164
mp-7100,129,0.391839502,5.889437325,La2O2F2,0,98.06477542,,4.49573506,-46.83761766,520,4.00E-07
mp-7104,221,6.099239126,3.970085072,Cs1Ca1F3,0,96.19152709,,-1.73717444,-25.86358159,520,0
mp-7113,166,3.079223795,6.647310632,Cr1Au1S2,0,78.21247251,,3.94434001,-23.17719229,520,3.0000033
mp-7128,162,6.686970895,5.672598191,Cd1As2O6,0,104.8706585,,2.00295867,-51.11653123,520,8.00E-07
mp-7139,205,23.1305788,1.390242208,N8O4,1.476082121,210.2798268,,-2.30987592,-67.78751228,520,1.16E-05
mp-7140,186,0.633429371,3.170122562,Si2C2,0.003591166,42.00550872,,8.11346204,-30.10711942,520,0
mp-7142,187,-0.114048538,16.34426597,Os1C1,0.911478308,20.54718018,,10.00831643,-18.6222997,520,2.82E-05
mp-7149,191,9.29769169,1.64658053,Na2Li1N1,0.200805293,67.49459891,,0.76944256,-12.64248695,520,4.60E-05
mp-7158,164,3.224189634,6.070412921,Lu1Al2Ge2,0.003095621,102.3637849,,5.16972614,-23.05638073,520,0.0003777
mp-7159,221,8.35063461,7.269251877,La3Tl1C1,0,144.6234867,,7.36281984,-27.83802629,520,0.0003536
mp-7162,229,8.86489425,7.131899749,Sn1,0.073419525,27.63956258,,7.91199202,-3.93597792,520,9.80E-06
mp-7173,216,2.442758312,9.198603745,Sc1Sb1Pt1,0,65.31239905,,6.94535701,-20.04292746,520,3.36E-05
mp-7176,166,4.616604183,4.566413461,Rb1La1Se2,0,139.0178321,,2.05130344,-20.130132,520,4.60E-06
mp-7187,225,0.611575501,6.253221549,Ti1Al1Ni2,0,51.04797297,,8.12214127,-25.68702196,520,0.0006035
mp-7191,176,4.912830492,4.533980534,Sr6Ga2N6,0,274.3915936,,2.30387467,-75.08233247,520,5.00E-08
mp-7192,129,2.039633626,4.99979297,Sc4Sb2,0,140.6015527,,6.1934404,-38.28177379,520,0.0003757
mp-7193,12,2.052336348,6.157769913,Lu2Si2O7,0,139.7139902,,1.7805832,-90.68001495,520,1.00E-07
mp-7206,88,8.492482325,5.135290603,Tc2Ag2O8,0,174.5267137,,0.50782313,-78.80240873,520,2.00E-07
mp-7219,12,10.04378417,4.201333534,Na4Zr2Se6,0,295.7062632,,1.95021869,-58.86464927,520,8.15E-06
mp-7223,221,0,3.200201778,Ca3As1N1,0.005979798,108.531333,,3.65056155,-24.45064546,520,6.62E-05
mp-7226,223,-2.7616903,6.898752988,V6Ni2,0,101.8252809,,6.66888432,-67.2795173,520,0.0001193
mp-7228,60,4.08163204,11.2397944,Re4O8,0.002616507,128.948711,,5.72304605,-106.5932539,520,1.10E-06
mp-7229,166,5.9691225,6.910599341,B5Mo2,0.44463129,59.09540528,,10.26718981,-54.59719843,520,0.0001961
mp-7233,164,2.367099285,6.173818369,La2Se1O2,0,104.5653261,,5.74480085,-38.87420834,520,1.15E-05
mp-7237,12,7.974354281,6.555520122,Cu2Ag2O4,0.020324187,103.0506265,,2.55802754,-36.51568978,520,1.21E-05
mp-7243,225,2.800671551,8.748709874,Li1Sn1Pd2,0,64.24690363,,6.15318671,-18.91319893,520,8.14E-05