material_id,spacegroup.number,delta_volume,density,full_formula,e_above_hull,structure.lattice.volume,band_gap.optimize_structure_gap,efermi,final_energy,encut,total_magnetization
mp-1,229,5.801290683,1.935216639,Cs1,0.036570774,114.0413363,,0.56012257,-0.85881928,520,0.0002568
mp-2,225,-0.032098408,11.40807158,Pd1,0,15.49030995,,4.40971587,-5.18261814,520,0.0159454
mp-7,148,44.60617174,1.68854439,S6,0.065430433,189.199116,,0.38585638,-24.37468862,520,1.27E-06
mp-9,225,-17.09949078,4.551007392,Y1,0.02754448,32.43933092,,3.14456065,-6.43983967,520,5.50E-05
mp-10,221,10.9715374,6.064411011,As2,0.10740506,41.02962069,,5.52578275,-9.10133099,520,1.35E-06
mp-11,166,1.865892271,5.540734424,As2,0,44.90749139,,5.07090782,-9.31614111,520,1.50E-06
mp-13,229,0.35066334,8.027686062,Fe1,0,11.55162297,,5.21855196,-8.45983087,520,2.2223763
mp-17,223,-3.354429235,7.349658302,Cr8,0.067871161,93.98157076,,6.78985928,-76.55066159,520,3.53E-06
mp-19,152,3.003578186,6.048410929,Te3,0,105.0944375,,5.560943,-9.42724539,520,0
mp-20,229,-0.490707614,1.915010801,Be1,0.095509445,7.814619132,,5.93380455,-3.64710099,520,1.00E-07
mp-21,229,-23.5236605,1.591017344,Ca1,0.02832519,41.82926347,,2.04687619,-1.99349387,520,2.22E-05
mp-23,225,-3.145872466,9.047692651,Ni1,0,10.77210355,,8.01542617,-5.78107405,520,0.6388519
mp-24,206,5.716547713,3.552120774,C8,0.832339887,44.91792373,,9.91750705,-67.14506955,520,0
mp-25,205,21.0219955,0.926593601,N8,8.88E-16,200.8101255,,-6.88014484,-66.6138121,520,0
mp-26,194,-1.038025316,6.20891729,La4,0.021294128,148.5978602,,7.88460751,-19.70636613,520,0.00168735
mp-27,225,5.161064923,3.219822533,Si1,0.53675648,14.48436016,,10.16738863,-4.88861001,520,9.20E-06
mp-30,225,-2.046080078,8.888269778,Cu1,0,11.87189593,,6.85711774,-4.09929227,520,5.00E-07
mp-32,227,2.576196694,5.04196833,Ge2,0,47.84701052,,2.54548265,-9.24549241,520,4.00E-07
mp-33,194,2.189468978,12.02932461,Ru2,0,27.90359163,,8.25437266,-18.55270517,520,1.65E-06
mp-35,217,-31.68755669,8.265242487,Mn29,0,320.0845336,,6.40290991,-265.6182285,520,0.178740941
mp-36,225,-8.98278839,3.030164084,Sc1,0.04903343,24.63597511,,3.73685115,-6.28616593,520,0.0026609
mp-39,229,2.062673893,10.90120502,Tl1,0.000258585,31.13292962,,5.75918426,-2.36694917,520,3.90E-06
mp-41,229,-0.640002319,6.584887037,Zr1,0.08429735,23.00434503,,4.1524755,-8.46322461,520,1.52E-05
mp-42,113,11.1783594,16.05411605,Ta30,0.004923741,561.4840793,,5.26488137,-355.5186435,520,1.73E-07
mp-45,225,-93.10656756,1.596263449,Ca1,0,41.69179198,,1.95942498,-2.02181906,520,8.10E-06
mp-46,194,2.775614356,4.579590147,Ti2,0.007263838,34.71272305,,5.92684139,-15.77972703,520,9.00E-07
mp-47,194,0.211825311,3.488247284,C4,0.160478616,22.87020916,,9.96593005,-36.25997986,520,0
mp-50,229,-0.439640969,16.38781405,Ta1,0,18.33502736,,5.38715001,-11.85554519,520,4.69E-05
mp-51,225,1.761378545,0.571922238,Li1,0.00092082,20.1527423,,-0.23557455,-1.90705183,520,0.0001005
mp-66,227,2.960983111,3.495825488,C2,0.135161236,11.41031571,,9.68772151,-18.18062469,520,0
mp-67,194,0.775243931,3.023051897,Sc2,0,49.38786995,,3.68018776,-12.67039872,520,0.0843585
mp-70,229,9.978556152,1.578645454,Rb1,0.04763396,89.90151538,,0.0408764,-0.96889851,520,6.59E-05
mp-72,191,-0.36119266,4.646835431,Ti3,0,51.31558245,,5.921256,-23.69138206,520,1.30E-05
mp-73,229,-1.109343842,4.624491594,Ti1,0.114489323,17.18784014,,5.74516754,-7.78263803,520,0.0007056
mp-74,225,0.280960947,12.03460517,Rh1,0,14.19893696,,6.8347949,-7.35700461,520,0.0009868
mp-75,229,0.433477127,8.427651337,Nb1,0.081502858,18.30577285,,4.85616748,-10.11313917,520,2.12E-05
mp-76,225,9.355785377,2.664251904,Sr1,0,54.61061339,,1.63174603,-1.68596503,520,0.0001431
mp-79,194,0.893607762,6.981483281,Zn2,0,31.11493466,,2.935152,-2.54565365,520,3.50E-07
mp-80,194,2.426755835,7.376654428,Sb2,0.28024546,54.8181389,,8.32854335,-7.69503163,520,2.03E-05
mp-81,225,0,18.02564889,Au1,0,18.14473805,,4.9944837,-3.27381448,520,0
mp-82,194,-18.01663908,10.84447032,Tl2,0,62.59161375,,5.72092448,-4.73441551,520,9.00E-07
mp-83,14,486.8825235,1.608653543,S56,0.038012795,1853.556556,,0.18797939,-229.0324815,520,1.25E-06
mp-87,194,2.298655741,1.895750276,Be2,0,15.78802887,,5.03332674,-7.48522087,520,5.00E-08
mp-89,194,-4.226974412,7.223944699,Cr2,0.405900605,23.9042677,,6.62550081,-18.46160651,520,5.40E-05
mp-90,229,-0.662413846,7.462556211,Cr1,0,11.56997033,,7.09104195,-9.63670386,520,8.30E-06
mp-91,229,-0.496333649,18.95441471,W12,0,193.2680076,,7.25867984,-155.805641,520,1.50E-07
mp-94,194,3.680605526,8.018925346,Cd2,0,46.55557845,,2.46105628,-1.82946871,520,5.90E-06
mp-95,229,-2.983799123,2.709120336,Sr1,0.00863689,53.70615278,,1.68585128,-1.67732814,520,0.0018271
mp-100,229,-1.311390542,13.34394103,Hf1,0.181111245,22.21155,,4.63926498,-9.77315415,520,1.35E-05
mp-101,225,0.495906025,21.93012414,Ir1,0,14.55458394,,9.89599874,-8.86382689,520,1.21E-05
mp-102,225,-16.12188241,8.976730908,Co4,0.018435975,43.606463,,5.44332555,-28.36623346,520,0.408288575
mp-103,194,1.521845683,13.18322321,Hf2,0,44.96466585,,4.90458019,-19.90853079,520,2.26E-05
mp-104,166,4.229664443,6.292121189,Sb2,0,64.26679571,,6.64014332,-8.25552255,520,3.50E-07
mp-105,51,20.32374822,6.459681292,Te4,0.042142107,131.2044802,,6.396636,-12.40109209,520,3.92E-05
mp-109,69,-0.120217321,3.041709778,Si4,0.295513985,61.33007105,,9.23367717,-20.51941002,520,4.08E-06
mp-110,229,10.05231469,1.760289765,Mg1,0.03918191,22.92770324,,3.49433646,-1.56515305,520,1.36E-05
mp-112,194,-0.329260695,4.494518473,Y2,0,65.694083,,3.03178932,-12.9347683,520,0.00111885
mp-113,194,0.573476157,11.15262157,Tc2,0,29.18288312,,8.27284849,-20.71695372,520,4.00E-07
mp-117,227,5.59193021,5.371468253,Sn2,0,73.39616661,,4.85890817,-8.01879489,520,1.05E-05
mp-118,2,207.59926,1.484732119,P24,0.139712176,831.3926592,,-0.53213303,-126.4819721,520,3.39E-05
mp-119,229,9.242945219,6.398515637,Se1,0.589222521,20.49165307,,5.43403351,-2.90027689,520,6.32E-05
mp-122,229,0.087255171,3.583054237,Ba1,0,63.64314624,,1.57792692,-1.92459366,520,0.0004194
mp-124,225,1.274092631,9.948341485,Ag1,0,18.00494661,,3.063815,-2.83173514,520,1.05E-05
mp-126,225,0.62573126,20.60340495,Pt1,0,15.72286711,,7.26022854,-6.0568289,520,0.0010608
mp-127,229,3.786832934,1.050960849,Na1,0.001335935,36.32429262,,0.49496737,-1.3112556,520,0.0002401
mp-128,148,10.60154169,5.575408483,Ge8,0.14751775,173.0765467,,3.08894043,-35.80182764,520,3.63E-07
mp-129,229,0.278571617,10.02490713,Mo1,0,15.89163006,,8.43131089,-10.86234306,520,6.88E-05
mp-130,166,3.733858435,3.143904501,P2,0.083491918,32.71927694,,8.79122372,-10.65260486,520,3.65E-06
mp-131,194,0.422782938,6.446093997,Zr2,0,46.9993188,,4.31395776,-17.09504392,520,1.85E-06
mp-132,194,-6.621464502,1.569030808,Ca2,0.02441685,84.83081827,,2.00607698,-3.99480442,520,0.00018935
mp-133,221,3.244930093,6.769202947,Sb1,0.048567055,29.86869135,,7.15822847,-4.07919422,520,3.92E-05
mp-134,225,-0.358233459,2.72005023,Al1,0,16.47171722,,8.05677666,-3.74810318,520,5.00E-07
mp-135,229,-0.91509828,0.572833385,Li1,0,20.12068742,,-0.22274646,-1.90797265,520,7.17E-05
mp-136,194,-11.30140595,9.031486699,Fe2,0.080240365,20.53544578,,6.27682488,-16.75918101,520,1.00E-07
mp-137,96,42.78992435,5.608375057,Ge12,0.144267103,258.088779,,2.74303374,-53.74174922,520,1.02E-06
mp-139,194,-2.975287828,2.63483349,Sr2,0.00549138,110.4407024,,1.6016403,-3.3609473,520,0.0058639
mp-142,64,-5.349392374,5.742582786,Ga4,0,80.645081,,2.82426444,-12.14893376,520,2.23E-06
mp-146,229,-4.268749207,6.312967371,V1,0,13.39945932,,5.8753213,-9.0866256,520,5.50E-06
mp-148,69,69.65099038,6.212377728,Ge8,0.240134679,155.330614,,4.16304088,-35.06089221,520,1.25E-08
mp-149,227,0.851482217,2.281194301,Si2,0,40.88829189,,5.63422086,-10.85073298,520,0
mp-150,225,-0.142104894,7.655096589,Fe1,0.14822141,12.11386448,,4.9377636,-8.31160946,520,2.5829237
mp-153,194,1.115394791,1.751648643,Mg2,0.01034393,46.08161749,,3.43405787,-3.18798206,520,0.0001844
mp-154,198,22.15451549,0.918785621,N8,8.88E-16,202.5166405,,-6.87143574,-66.61534328,520,0
mp-156,225,-8.582634092,6.230178924,La1,0,37.02268565,,7.87413101,-4.94788566,520,9.45E-05
mp-160,166,-0.488569602,2.476400445,B12,0,86.99120175,,6.10843561,-80.14231912,520,0
mp-165,194,-1.103600689,2.281615853,Si4,0.01074589,81.76147471,,5.89886507,-21.6584824,520,0
mp-168,206,1.928421529,2.530928494,Si8,0.158594829,147.4148932,,7.05217149,-42.13417329,520,1.25E-08
mp-173,63,-2.870730418,3.352782975,Mn2Al12,0,214.7768945,,7.8511753,-65.68627296,520,0.0007833
mp-174,140,-82.2446678,8.671997596,Tl10Te6,0.009106663,537.9583107,,4.82179021,-46.99215526,520,2.75E-06
mp-179,225,40.58396862,4.925357535,Y1Zn1,0.276587435,52.02583387,,2.38206579,-7.9029071,520,0.0001934
mp-182,191,1.749952994,4.754547631,Sr1Ga2,0,79.30343472,,2.41163773,-9.25400212,520,2.41E-05
mp-188,221,10.35847252,16.84127963,Al1Pt3,0.018030456,60.36582222,,7.97155432,-24.66811597,520,8.48E-05
mp-189,198,6.954008179,8.035131593,Si4Ru4,0,106.7650218,,9.86186783,-63.9835629,520,1.45E-06
mp-190,221,62.63689581,7.108138042,Re6O18,0.000681807,328.2774271,,1.86399589,-202.5575319,520,9.83E-06
mp-191,221,1.23013569,7.797625058,Y1Rh1,0,40.84708262,,4.934016,-15.53442976,520,6.65E-05
mp-203,194,0.930831254,8.38932871,Ni2Te2,0.004219593,73.74784665,,9.07507137,-18.59359433,520,1.50E-06
mp-208,62,5.474528432,13.69347505,Ge4Ir4,0,128.47152,,6.47104914,-56.43843732,520,8.30E-06
mp-210,194,88.98540849,1.846625348,Ba6Li24,0.000365132,890.7276754,,0.56738038,-57.32795159,520,0.0006992
mp-213,221,3.146855063,5.53469945,Ca1Pd1,0,43.95281993,,3.59125823,-8.5451698,520,1.50E-06
mp-215,225,0.723160855,5.828631379,Y1Sb1,0,60.01732577,,5.08713069,-12.91838612,520,7.98E-05
mp-219,187,0.473409719,7.222266225,Mo1P1,0,29.17993466,,9.54122332,-17.57210586,520,0.0002691
mp-223,154,11.49056939,4.043546839,Ge3O6,7.39E-05,128.9141584,,-0.80326528,-58.11268701,520,1.17E-05
mp-224,194,18.73862284,6.576662388,W2S4,0,125.2197061,,4.0250493,-47.35929753,520,1.71E-05
mp-226,205,-1.070211428,5.050093189,Fe4S8,0.007088297,157.7976199,,7.75050898,-72.85047402,520,0.000201525
mp-228,164,2.210534174,7.928540509,Te2Rh1,0.014147702,75.00096172,,6.72102154,-14.8191787,520,7.98E-05
mp-229,221,2.218891335,10.58653824,Zr1Rh3,0,62.73219811,,5.96928225,-33.33234936,520,6.95E-05
mp-251,225,0.934554389,14.96910905,Ta1N1,0.326768168,21.62651699,,9.33769369,-21.88380664,520,4.92E-05
mp-252,216,0.965779853,4.985107339,Be1Te1,0,45.50551194,,4.56523841,-7.60037396,520,0
mp-253,227,-18.93945301,6.582231951,Sc2Co4,0,82.15231279,,5.24119338,-43.21462816,520,1.75853975
mp-255,63,11.93882986,6.938359657,Na4Hg4,0,214.0349903,,1.87635407,-8.47095171,520,1.31E-05
mp-256,225,2.624080783,6.786982053,La1N1,0.012962275,37.41230285,,7.89080517,-15.88708238,520,5.43E-05
mp-258,227,-5.755866747,6.433458954,Zr2V4,0.045464385,99.68563248,,4.8905691,-53.16876001,520,0.02898555
mp-259,223,1.998809613,8.470006364,Al2Mo6,0,123.433259,,8.40058735,-74.49085412,520,7.90E-06
mp-261,194,6.84559783,3.843168297,Ba6Al10,0.001172882,472.5944611,,3.90182306,-52.6911227,520,0.0006943
mp-265,221,1.914942203,20.76033384,Ta1Ir3,0,60.59741266,,8.84939947,-41.18339822,520,7.90E-05
mp-267,58,4.817738647,8.405141636,Te4Ru2,0,140.771035,,8.09658579,-33.12616839,520,3.95E-06
mp-282,225,0.755994221,4.072180198,Ti1F2,0.259851173,35.01323511,,6.00956915,-19.80301256,520,2.000069
mp-284,221,-2.37602718,6.136770618,Al1Co1,0,23.24753166,,8.30493473,-12.0649413,520,2.70E-06
mp-288,131,2.904897092,9.865042039,Pt2S2,0,76.46997973,,5.08056647,-22.02208669,520,2.22E-05
mp-291,221,0.433639245,13.33376098,Ti1Os1,0,29.65175125,,7.61031979,-20.54266726,520,1.70E-06
mp-292,223,-0.451364218,7.121142528,V6As2,0,106.2136557,,7.38932275,-67.42306958,520,7.80E-06
mp-303,63,6.64309114,6.230643808,Ba2Zn10,0,247.5210777,,2.52092085,-19.14899077,520,9.50E-07
mp-304,62,0.224017593,2.991327769,Ca8Ge4,0,339.2790664,,2.81053649,-41.91659158,520,6.35E-06
mp-305,221,-6.171895716,6.642034361,Ti1Fe1,0,25.92847546,,6.58810599,-17.19513769,520,1.11E-05
mp-306,152,11.7434268,2.343828899,B6O9,0,147.9720556,,-0.43369962,-120.3692711,520,0
mp-313,139,0.758154636,4.447056032,Y1C2,0.070430449,42.16724636,,4.99743973,-25.47777976,520,0.0001367
mp-315,225,1.529861749,7.550324717,Pb1F2,0,53.92600779,,1.52221392,-14.65866316,520,1.20E-06
mp-316,221,-0.751083212,7.406263759,Mn1V1,0,23.73897605,,6.64510908,-18.80966575,520,7.50E-05
mp-317,198,6.344433254,10.39065757,Sn4Rh4,0,141.6661794,,9.22397605,-49.19269933,520,4.20E-05
mp-318,227,2.632176773,13.42630466,Sr2Ir4,0,116.7654267,,5.80755431,-40.38772943,520,4.80E-05
mp-321,140,-56.33839568,12.44565865,Rh2Pb4,0,138.0410636,,7.87009949,-30.02616908,520,1.89E-05
mp-322,140,-39.85533247,7.075924469,Tl4S4,0.049609109,221.9535467,,3.90189851,-27.62780233,520,4.87E-05
mp-328,140,-3.067367956,7.189327528,Zr4Ni2,0,111.3942041,,5.08365346,-47.68795814,520,5.50E-07
mp-331,221,-0.350724089,3.099619548,Sc1Al1,0,38.53858298,,6.01402599,-10.97763507,520,0.0003602
mp-333,227,-28.03251725,11.26569055,Hf2Fe4,0,85.54384065,,5.36333762,-55.85479014,520,0.00062485
mp-341,139,9.011081772,5.807854679,Pb1F4,0,80.9686323,,-1.9232784,-20.48557568,520,2.80E-06
mp-351,62,-23.9660397,5.981087487,Si4Ni4,0,96.37026818,,9.71265769,-48.84148612,520,7.37E-05
mp-352,14,-0.65084779,9.967762168,Hf4O8,0,140.2621226,,3.06173747,-122.1533033,520,0
mp-353,224,8.084075175,6.784389315,Ag4O2,0,113.4387562,,0.823626,-21.77034021,520,7.50E-07
mp-358,152,33.75630422,8.153570171,Hg3Te3,0.062844893,200.515466,,3.06666464,-10.97283802,520,1.33E-07
mp-361,224,1.109604256,6.028166001,Cu4O2,0,78.83288415,,4.19981375,-28.75913667,520,1.51E-05
mp-362,155,1.415806347,5.961737919,Ni3S2,0,66.90639883,,7.46774305,-27.44767597,520,2.77E-05
mp-363,180,4.094562997,7.967848883,Nb3Ge6,0,148.9176522,,5.65265933,-61.13130761,520,7.83E-05
mp-364,221,0.877932183,7.934754964,Al1Rh1,0,27.18199861,,8.9572583,-13.28595546,520,0.0007619
mp-371,221,-3.903238341,7.866826654,La3Tl1,0,131.1024587,,8.19883669,-18.12807326,520,0.0733777
mp-372,221,2.088465572,17.47473117,V1Pt3,0.01315118,60.45438601,,7.49706282,-29.027773,520,1.2623385
mp-374,191,-0.459039325,5.316402852,Cr1B2,0.070093048,22.99406808,,8.95125119,-24.01695421,520,0.0004644
mp-377,221,0.849303274,12.19330869,Lu1Rh1,0,37.84191364,,4.93205173,-13.9425054,520,8.76E-05
mp-379,216,8.296515447,5.811063535,Ag1Se1,0.137849559,53.38704662,,0.99419001,-6.14958657,520,0.0012595
mp-380,186,3.175413662,5.057366242,Zn2Se2,0.00482797,94.80442949,,1.33247261,-12.35102026,520,1.98E-05
mp-381,221,0.836698908,8.440175683,Si1Ru1,0.014211468,25.41034192,,10.87975683,-15.96746779,520,1.60E-06
mp-383,194,162.7375948,3.723767528,Rb8Te4,0.05661749,532.5037236,,1.15332296,-31.70321744,520,0.000173625
mp-384,14,6.641440193,2.46614174,Mg2P8,0,199.5764975,,5.17731842,-49.54971676,520,5.00E-08
mp-389,62,4.807846161,7.389211769,Si4Pd4,0,120.9068793,,7.78870045,-46.72764935,520,1.50E-06
mp-399,164,4.649285828,9.645396319,Te2Pt1,0,77.52031501,,7.28030193,-13.54288337,520,6.60E-06
mp-402,33,11.26826425,4.019570612,Cd4P8,0.000910445,288.1194675,,2.83922644,-48.43987827,520,0.000200875
mp-404,194,10.37461706,6.61072216,Mn2Te2,0.008071032,91.70300692,,6.72201897,-24.94139212,520,4.13393785
mp-406,216,4.872020683,5.472510161,Cd1Te1,0,72.82720795,,1.7731654,-4.98219499,520,3.86E-05
mp-408,225,1.457784166,3.035879902,Mg2Ge1,0,66.32026467,,3.28145004,-8.64168349,520,4.22E-05
mp-409,189,3.851075234,1.989344623,Na6S6,0.002528967,275.7307889,,2.0657495,-42.60836359,520,1.69E-05
mp-414,225,1.437230103,9.416336578,Lu1Se1,0,44.77916579,,6.04373424,-11.1800139,520,0.0018409
mp-415,14,5.045262341,12.9902639,Ir4N8,0.165625158,112.6077745,,8.48605899,-97.08758317,520,4.50E-07
mp-416,223,-2.336427095,11.44896573,Cr6Os2,0.012992612,100.4298584,,7.35670789,-80.15584773,520,0.00175235
mp-417,221,0.037459384,9.280376036,Mn1Rh1,0,28.24296857,,5.78602965,-16.89255247,520,4.0893837
mp-422,216,0.169325997,2.355668066,Be1S1,0,28.95580466,,3.47441272,-9.98932245,520,0
mp-423,189,6.621382179,10.18840156,Ge3Pd6,0,139.585395,,5.24582101,-49.80946611,520,9.20E-06
mp-426,194,-0.32568695,7.803227204,Co2Se2,0.140229334,58.68777819,,6.59709409,-21.74183969,520,0.00021355
mp-427,62,-2.019125706,8.093739499,Fe4As4,0,107.3140762,,7.0285339,-54.0761953,520,0.0005768
mp-429,123,-4.432834807,8.555703737,Zn1Ni1,0,24.0864909,,5.41485181,-7.54943808,520,3.00E-07
mp-430,14,19.01374244,4.434971172,Ti4O8,0.065315909,119.6132049,,3.95079934,-106.8965936,520,6.28E-06
mp-432,123,1.93784896,9.954473557,Nb1Ru1,0,32.35784896,,6.80174821,-19.725728,520,0.0009357
mp-437,221,1.494266062,10.17575949,Mg1Au1,0,36.10836904,,5.19083966,-6.08553865,520,5.70E-06
mp-441,225,50.66441613,3.108001668,Rb2Te1,0,159.5012074,,-0.07229535,-8.09565683,520,3.41E-05
mp-442,191,6.785650963,11.84527691,Rh3Pb3,0,130.4171172,,7.1688638,-33.7049206,520,0.000119033
mp-446,223,-2.305022469,11.39554977,Cr6Pt2,0.064280295,102.3152497,,7.26090853,-70.10818227,520,0.00547245
mp-448,216,-1.684956661,6.282376072,Co1N1,0,19.27925706,,5.40598912,-15.22112846,520,9.00E-07
mp-450,191,-7.38136898,6.779430034,Nb1B2,0,28.05233556,,8.44418684,-25.55685605,520,2.20E-05
mp-451,225,4.552935543,5.716275297,Zr1B1,0.367026412,29.64047254,,3.81145154,-15.97975725,520,6.57E-05
mp-452,204,8.274854853,6.662048814,Co4As12,0,282.8508823,,5.89035544,-89.11524926,520,0.0009736
mp-458,167,1.36589464,4.512568464,Ti4O6,0,105.7814109,,6.98838083,-90.17641346,520,0.0001095
mp-463,225,0.962655936,2.418272598,K1F1,0,39.89287388,,-2.98368935,-8.4316262,520,4.20E-06
mp-468,167,5.137310012,3.02126203,Al2F6,0,92.31021174,,-1.07110144,-47.14404392,520,2.20E-05
mp-470,136,7.321313337,5.942928378,Ge2O4,0.003664797,58.47514944,,3.74776977,-38.72024608,520,6.28E-05
mp-475,225,1.309943942,5.684716737,Sn1P1,0.033938612,43.7235032,,7.89521369,-9.40956803,520,3.18E-05
mp-476,227,-0.044112285,6.337876487,Ge6N8,0.108556204,143.5494545,,5.10669071,-93.48568085,520,5.50E-07
mp-481,221,2.445200608,16.23708393,Sc1Pt3,0,64.45029452,,6.78329897,-28.70931454,520,0.000149
mp-485,194,-0.839516427,8.426586646,Zr2Ni6,0,105.3496696,,6.95874535,-55.42478107,520,1.20E-06
mp-486,15,-10.88024808,4.476788338,Ni2P4,0.011164857,89.49673247,,7.32809623,-35.35800954,520,0
mp-487,2,0.302090713,4.057132025,Mn2P8,0.000343519,146.3887942,,8.44617615,-65.20487864,520,3.50E-07
mp-488,194,11.48453394,5.799783849,Cu6Se6,0.000554874,244.8057885,,3.6283749,-47.05912875,520,6.98E-06
mp-489,152,10.89442772,8.865439596,Ge12Ir3,0.00643517,271.279291,,4.89156118,-84.60679584,520,0.000418633
mp-491,220,4.471980425,6.465075561,La6Se8,0.008905476,376.3106885,,7.96150477,-85.78262617,520,0.0001104
mp-492,225,-15.74477719,5.340303738,Ti2N2,0,38.47859577,,9.09453105,-39.3306175,520,4.95E-06
mp-493,140,-22.62834129,8.184712381,Co4B2,0.024911838,52.21291103,,6.83331881,-43.24889426,520,2.01158615
mp-495,221,2.82868078,8.472409876,Lu1Ga3,0,75.28823959,,3.96011521,-15.53927817,520,8.80E-05
mp-496,212,41.01472494,3.372009868,Sr4Si8,0.001411656,283.2382804,,5.39082452,-54.51131643,520,1.38E-06
mp-499,66,14.49492836,6.752893182,Ag2O2,0,60.9181813,,1.590115,-15.96590073,520,9.63E-05
mp-500,194,28.48639305,7.856984566,Ta2Se4,0,143.2364642,,2.84788325,-42.56542736,520,0.00283695
mp-501,194,27.27245226,7.840250759,Ta4Se8,0.008586679,287.0843607,,3.63766866,-85.02781457,520,0.00049215
mp-504,194,5.248413132,4.641682982,Cu6S6,0.000404398,205.2261631,,5.0070122,-51.73602584,520,7.72E-05
mp-506,221,0.966797247,6.693304704,Mg1Pd1,0,32.43150814,,4.91265919,-8.24065935,520,3.26E-05
mp-507,194,4.388790226,7.353357675,Si2Ni4,0.050977254,65.70126031,,10.06377704,-36.96898828,520,3.60E-05
mp-514,227,1.446363561,10.32375643,Hf2Zn4,0,99.5021556,,3.86130825,-26.25883075,520,0.00019085
mp-517,180,2.029673668,8.942224773,Ta3Si6,6.63E-07,132.0963745,,9.20751694,-72.42130429,520,0.0004497
mp-522,123,2.576219785,14.40035396,Cu2Au2,0,60.08064699,,5.88857358,-14.92641784,520,9.50E-07
mp-523,194,2.517860637,4.893698418,Cr2S2,0.089376948,57.04754416,,7.97405071,-29.52748994,520,2.92528345