material_id,spacegroup.number,delta_volume,density,full_formula,e_above_hull,structure.lattice.volume,band_gap.optimize_structure_gap,efermi,final_energy,encut,total_magnetization
mp-540803,71,-6.185953562,4.437338579,Sr3Li4Sb4,0,291.0171061,,3.67883182,-38.7909339,520,9.82E-05
mp-540807,62,64.23726804,1.563510524,C8S12N8,0.300724399,629.714648,,-0.98739819,-177.7155838,520,0.00015925
mp-540813,2,12.67151312,2.592248318,K3Re1C4N4O2,0.10760454,281.5793683,,-1.1121375,-103.570169,520,7.76E-05
mp-540846,12,1.387755374,3.755331421,V2Mo1O8,0.059615481,144.0708636,,,-79.65593,520,0
mp-540912,204,14.05259557,8.721003239,As12Ir4,0,317.5848186,,6.12870071,-98.0868728,520,4.30E-05
mp-540943,14,103.5823436,3.396478736,Se8Br8,0.004205195,621.349096,,-0.62274506,-42.41066348,520,0
mp-540957,225,38.73576004,4.366848113,Cs2Te1I6,0,439.1389569,,1.17339944,-21.45888489,520,0
mp-540966,148,1.72269215,2.7654264,Ni1Cl2O8,0,154.6762878,,-0.44729373,-46.67555076,520,1.9998786
mp-540999,139,7.600752536,4.888862838,Cs2Cu1O2,1.01496045,122.7371831,,,-15.58544918,520,3.85E-05
mp-541013,15,56.43035433,4.366868799,Ti2I8,0,422.45571,,1.60481113,-35.2488061,520,0.00028305
mp-541014,164,48.50613682,4.275630334,Cs3Sb2I9,0.004954172,693.003546,,1.37368122,-37.30486103,520,0
mp-541022,227,4.810656786,4.639232462,Mn2Cr4O8,0,159.5869113,,3.18896557,-111.9888898,520,10.99997745
mp-541037,63,5.506094149,4.435068486,Cs2Cu2O2,0,159.0879305,,2.30740059,-25.63609256,520,0.00010305
mp-541044,194,-39.26532912,5.564839502,Cs2Y2O4,0,151.4730417,,2.32028614,-55.35239468,520,2.42E-05
mp-541047,225,2.152060581,8.143439082,Zr1Al1Pd2,0,67.50391761,,6.07903803,-25.86668466,520,0.0004372
mp-541150,87,4.009017351,5.322651798,Ba1Mn4O8,0.050912494,151.3315122,,,-93.31045631,520,14.0000003
mp-541226,148,13.91132214,3.529830937,Cs1Br1F6,0,153.7365256,,,-26.17690229,520,2.30E-06
mp-541234,12,3.196552526,3.500728763,Cs2K4Fe2O5,0,291.1936951,,1.40676594,-58.98795056,520,8.0001853
mp-541238,167,20.21627812,2.865250164,K2Ti4P6O24,0,486.5231453,,0.89394587,-277.7066797,520,7.15E-05
mp-541272,167,16.62640448,3.446222349,Li2Ge4P6O24,0.001459863,421.2611971,,1.56956823,-246.2306893,520,0.00049255
mp-541299,148,22.20239659,3.313366233,Zr4Cd1P6O24,0,524.7861875,,0.08744406,-278.7072045,520,0
mp-541310,194,7.559130726,4.402815621,Ca4Ga4Ge4,0,275.2333316,,3.5708029,-44.96400335,520,0.001003825
mp-541368,164,2.175470001,6.709965396,Tl4V2O7,0,255.2472019,,1.81249702,-77.76534044,520,0.0002075
mp-541385,12,5.333434061,4.631256888,Cs6Fe2O5,0.001086182,354.6492747,,2.07675492,-57.19270659,520,7.996752
mp-541441,63,20.66670533,6.33883795,Zn2Te2,0.266129058,101.1223136,,4.59120859,-9.63837949,520,8.00E-07
mp-541449,148,27.37708034,5.598935124,Cr2Ge2Te6,0,300.9920407,,4.3889942,-48.98759389,520,0.00014225
mp-541478,15,6.110104433,3.664718627,Na2Co6P6H4O24,0.007353004,441.0796654,,5.01898951,-273.0784663,520,9.0001452
mp-541487,164,27.97695184,9.25251858,Tl2Pt4Se6,0,298.4320692,,3.97927213,-55.24273016,520,0.0004755
mp-541582,2,25.48468849,8.378113369,Re4Se8,0,272.8233878,,3.82475936,-82.50904028,520,2.12E-05
mp-541588,2,2.033460886,6.254957006,V2Hg2O6,0,159.0357088,,,-58.81547074,520,0
mp-541600,123,5.655378334,6.701847247,Rb1La1Ta2O7,0.021881969,173.0114053,,2.09761314,-96.67316331,520,0.0001726
mp-541610,14,116.1587567,3.641964663,Ge8Br16,0,847.8697945,,-0.68903983,-76.87343303,520,0.00027495
mp-541667,2,28.82426773,4.708230158,Nb2Se4Br4,0.000944439,289.6521182,,1.96052845,-48.3187743,520,0.0005391
mp-541709,12,81.96814609,5.255507445,Nb6Tl4Br18,0,888.8771782,,1.98761309,-125.1685434,520,0.0003045
mp-541753,225,36.40287656,4.465234542,Cs2W1Br6,0,345.5059604,,0.9050255,-34.56870854,520,1.999292
mp-541772,12,41.82987102,7.698495646,Bi8Ru2Br4,0,473.1518049,,3.29121471,-60.62698732,520,0.00058485
mp-541780,14,9.869683926,3.598368174,Co4H8Se4O16,0.017903417,376.3872711,,1.00180485,-171.6519119,520,3.0000219
mp-541823,12,11.02141625,4.527275275,Tl1Cr5S8,0,264.4097433,,5.18596158,-93.10001396,520,15.0205395
mp-541837,166,46.57647296,7.056071163,Bi2Se3,0,154.1068235,,3.28797875,-20.18680204,520,0
mp-541848,166,110.7377204,2.072865708,B108,0.708323308,935.3357767,,4.71159821,-644.7819548,520,6.85E-08
mp-541899,194,28.90124022,4.332299521,Cs2Cd2Br6,0,371.8157879,,-0.63275876,-26.20679771,520,3.79E-05
mp-541912,166,25.15724802,5.115120608,Zr2Br2N2,0,120.2018176,,2.56751553,-46.67091326,520,9.39E-05
mp-541934,227,1.033331049,4.585171645,Al2Fe4O8,0.062576107,146.7949481,,5.20159951,-97.09096477,520,8.9999516
mp-541989,12,0.56328981,2.149229079,Na4C2N4,0,132.896396,,1.47792634,-61.62907664,520,4.88E-05
mp-542054,161,69.20193904,8.095161816,Hg18P8O32,0.013522585,896.4866754,,0.9767545,-279.5282625,520,1.61E-05
mp-542065,216,12.20182451,7.571742651,Cd1Ag1Sb1,0.055103555,75.01172068,,4.16055729,-7.86064073,520,2.96E-05
mp-542076,166,1.500293872,3.345325699,Ca3V2O8,0.020310222,173.7872568,,1.4612611,-93.54105734,520,0.0002186
mp-542096,12,24.21949034,2.63543642,Cr2P2S8,0,266.1839456,,3.32063598,-68.27510927,520,3.0001873
mp-542102,221,-3.927884425,5.604987999,Sr1Co1O3,0.063631115,57.63798009,,3.10780209,-29.52261153,520,3.2719139
mp-542112,221,7.994974368,4.135496743,Ca1Zr1O3,0.192225835,71.99497437,,2.244787,-40.72552969,520,0.0002004
mp-542116,164,2.310545129,3.486311974,Cs1Al1Mo2O8,0,228.5119213,,-0.59507977,-82.64337324,520,0.0002338
mp-542201,166,12.42631276,5.08095154,Ba3Nb2O8,0,237.1998421,,0.35075611,-102.421807,520,0.0004621
mp-542220,185,84.69138574,3.909200234,Cs18As6,0,1207.143563,,2.01213371,-49.55878651,520,8.00E-07
mp-542425,2,1.620390444,2.010884309,Mn1P4H16N2O16,0,395.5166917,,0.32179683,-234.203485,520,5.0011148
mp-542455,5,1.740502271,8.225713165,Ca2B5Os3,0,142.2995923,,,-74.77759141,520,2.00E-07
mp-542461,14,245.1304601,3.502169123,Se32,0.005589948,1198.033863,,-0.07145328,-111.4851028,520,2.52E-05
mp-542495,2,97.57116204,7.705956806,Ta13Se26,0.002792409,949.2842561,,,-276.5663739,520,7.69E-09
mp-542503,85,17.68069856,6.246916334,La18Sb10O10,0,1030.81128,,7.77567185,-264.5132089,520,2.21E-05
mp-542569,221,-0.836109445,7.832536559,Al1Ru1,0,27.14760121,,8.38690144,-14.40141832,520,0.0009293
mp-542605,14,215.9951199,3.555700722,Se32,0.004966029,1179.997286,,0.0748091,-111.5050682,520,0
mp-542621,2,-259.3045833,4.843490371,Ta5Se10,0.614908509,580.8862009,,0.5000222,-97.18994076,520,0.1446723
mp-542640,62,6.315896656,13.12468652,Ge4Pt4,0,135.490064,,6.18525309,-46.52056076,520,3.18E-06
mp-542699,62,99.75973436,2.754147532,Se12C8N8,0.371732104,696.7735737,,-0.85230374,-168.8890602,520,0.00021415
mp-542724,15,-136.7868693,5.681235731,La2Nb2O8,0.000866243,172.9212317,,3.45145339,-106.8458426,520,0.0005398
mp-542769,15,20.42399742,3.227163099,Sn2C4O8,0.0837479,212.7451044,,1.20310929,-101.0629476,520,6.00E-07
mp-542844,15,0.31436996,4.04201083,V4O10,0.073691247,149.4398968,,1.83299401,-103.3418977,520,0.00012075
mp-542909,213,-12.86873629,8.334307988,Mn20,0.049458057,218.91864,,6.43556211,-182.1958241,520,0.003754355
mp-542919,148,17.11322281,3.533736888,Na2Ge4P6O24,0,425.9114404,,1.3350489,-245.0447355,520,8.75E-06
mp-542977,129,18.99797265,5.337337942,La2Fe2P2O2,0.272495022,150.4088863,,,-55.49666412,520,3.929011
mp-542980,31,5.840253589,4.263757832,Fe2H2O4,0.029779416,69.2073935,,,-48.23117753,520,4.9999714
mp-543024,139,70.09320749,4.544991938,Cs2Pd1I2Br4,0,345.5008212,,0.71081622,-25.12432055,520,0.0002232
mp-543045,12,43.01397672,6.638154419,Tl4C2O6,0,234.5290482,,1.66135761,-71.38018884,520,0
mp-543057,59,3.070953826,4.104464242,Mn2O4,0.161570664,70.34390683,,1.5334292,-41.78373984,520,2.9994491
mp-543072,215,5.231138221,1.481562336,Co1C4O4,0.511745424,191.6276639,,-1.82534234,-65.64429677,520,1.0002109
mp-543085,65,-0.509718433,6.809096427,La4Ni1O8,0.078824598,181.0277685,,6.83063667,-97.25622653,520,4.95E-05
mp-543096,164,-0.284646448,4.805933979,Ni1O2,0.096869068,31.33583178,,1.68768901,-13.71148595,520,5.66E-05
mp-545343,182,-20.81613523,5.296626564,Li2I2O6,0.247823554,114.0191817,,6.01156201,-43.76782756,520,3.15E-06
mp-545346,5,6.735023932,4.3088677,Li1Ga1As2O7,0.027252372,130.4513124,,1.19981928,-65.32749801,520,0.0039664
mp-545369,129,7.410347323,8.706892626,Cu2Bi2Te2O2,0.091314491,158.7232475,,7.06575288,-36.64158202,520,2.23E-05
mp-545379,221,-1.061391572,8.497248607,In1Bi1O3,0.495264016,72.65678549,,5.84093415,-26.04127776,520,0.000525
mp-545387,146,19.02007399,2.446283438,K4C1O4,0.284323577,157.7543132,,0.99507801,-44.58634,520,4.95E-05
mp-545487,12,13.65930179,3.134999716,Cs2C4O4,0.197989941,200.1393614,,0.92134664,-68.93831602,520,0.00014935
mp-545488,13,8.619643555,2.355437927,Si4O8,0.697964502,169.4331652,,2.47212559,-86.60835017,520,7.08E-06
mp-545512,194,5.612508992,2.779379481,Ca2O2,0.0650847,67.00683558,,1.29928697,-25.49662752,520,9.25E-06
mp-545525,2,8.744213549,4.696352516,Nb2Cu2O6F2,0.035912303,158.0144415,,1.55026655,-85.536829,520,0.9997969
mp-545541,8,-53.12912688,2.01418109,Na4C1O4,0.284199521,138.476321,,0.8681812,-45.77670817,520,5.00E-07
mp-545552,31,16.53922429,5.566359899,Sn2O2,0.07251385,80.37217205,,4.67789242,-22.77195363,520,4.65E-06
mp-545603,225,6.827557647,7.141715178,Ba2Bi1Sb1O6,0.008695321,163.0822256,,4.28212537,-61.85782996,520,7.04E-05
mp-545619,225,-2.234487727,11.9795597,Hg1O1,0.144245179,30.02240176,,1.90983153,-5.54173652,520,6.30E-06
mp-545630,160,25.82676774,2.385128744,K4C1O4,0.285057444,161.7991333,,,-44.5797352,520,0
mp-545643,194,14.74934919,4.37536825,Ba2C2O6,0.104494002,149.7857767,,1.13353295,-73.62047656,520,0.0001617
mp-545719,98,13.6969259,2.188688471,Si4O8,0.149650879,182.3417579,,0.12449304,-93.18811365,520,5.51E-05
mp-545728,123,7.259376648,7.840833121,Pr1Bi2I1O4,0,158.7871085,,3.90830549,-48.84445413,520,0.0002581
mp-545730,59,4.731054907,3.988750898,Ag2C2N2O2,0.828328962,124.7959075,,0.56805178,-47.20905434,520,0.00034535
mp-545735,225,7.186433768,6.427632184,Ba2Nd1Ru1O6,0.003165773,159.1300782,,3.14729421,-71.00765574,520,3.0006835
mp-545756,216,28.96209002,2.209665862,Zn1S1O4,0.038361178,121.3440911,,-2.62649981,-33.37059151,520,4.67E-05
mp-545760,121,6.177863922,3.745321183,Rb4C1O4,0.207379081,185.2725547,,1.35530009,-44.22084916,520,6.40E-06
mp-545783,221,4.87296045,7.54094844,Ba2Bi2O6,0.024407799,173.6545072,,,-59.27378393,520,1.25E-06
mp-545788,123,5.076491073,5.410371232,Ba3Zn1N2O1,0.007462746,160.0277814,,2.64346229,-35.65184918,520,0
mp-545820,64,-5.827556473,5.84091644,Sn4O4,0.000990455,153.1884389,,6.04446314,-46.11609442,520,0.007843575
mp-545825,65,10.98160329,3.396317054,Na1I1O3,1.028505973,96.75425347,,1.43447529,-17.07724307,520,0.0009166
mp-545847,123,4.903596344,8.774657963,Lu1Bi2Br1O4,0,139.4395075,,3.66631434,-49.86524474,520,5.30E-05
mp-545974,186,27.11409499,1.88474878,Al2P2O8,0.010145731,214.8907639,,-1.23418987,-89.71230561,520,0
mp-545999,148,7.734649424,6.375239183,Ag2Sb2O6,0,144.6249976,,3.26287771,-53.77475346,520,4.15E-06
mp-546011,129,1.643643814,5.751669073,Y2Zn2As2O2,0,141.6019238,,4.17349656,-49.15249013,520,0.0001027
mp-546079,20,18.73970571,3.084978703,Mg2C2O6,0.378566918,90.76660557,,3.24948523,-67.89551669,520,0
mp-546118,216,4.627735813,2.023259478,Na1Cl1O4,0.111442543,100.4898361,,-0.90052358,-25.56063322,520,0
mp-546125,141,6.488349085,4.237270592,Sc2As2O8,0,144.1172072,,2.03223113,-88.27423115,520,3.50E-06
mp-546202,215,5.445321938,2.429232789,Li4C1O4,0.324024081,70.93513484,,1.8221819,-50.65042794,520,0
mp-546266,123,5.256115955,8.475087141,Dy1Bi2I1O4,0,151.134512,,4.20822325,-49.18525978,520,0.0006009
mp-546279,59,5.873999567,3.654160788,Sc2Br2O2,0,128.0197563,,0.62564219,-42.560562,520,0.0001141
mp-546295,87,4.57826702,6.81932983,Sr2Cu1Os1O6,0.007941416,127.8430005,,4.05332402,-65.74904077,520,1.000594
mp-546320,215,19.90094435,3.620850766,Rb4C1O4,0.265222828,191.6414867,,1.10049565,-43.70025544,520,6.35E-05
mp-546449,65,-120.7006528,3.910307968,Ba1Cu3O4,0.38215734,166.4496006,,2.09759913,-39.92432846,520,7.84E-05
mp-546500,160,3.441806067,1.824578095,Na1C1N1O1,0,59.16214079,,,-27.62060049,520,0
mp-546546,155,5.717614226,2.041497824,Si3O6,0.030325099,146.6163589,,-0.9135067,-70.96501726,520,0
mp-546551,121,19.91643627,2.678277999,Na4C1O4,0.158019158,104.1401928,,,-46.91233144,520,0
mp-546568,191,-34.90661381,6.91137318,Ta3N3O3,1.123542153,152.0525561,,1.30064818,-82.57962159,520,0.0023031
mp-546633,216,6.168643639,2.072556081,K1Cl1O4,0.039941563,111.0058538,,-1.39223254,-26.25247413,520,7.37E-05
mp-546643,82,-6.944481937,2.509777095,K4C1O4,0.194760678,153.7633619,,1.22539819,-45.39240609,520,2.60E-05
mp-546672,123,5.015615658,7.780608357,La1Bi2I1O4,0,159.5888733,,4.78853148,-49.3106267,520,0.0001381
mp-546707,121,13.64739285,2.072202107,Na4C1O4,0.141602415,134.5990269,,0.51072118,-47.06008212,520,1.64E-05
mp-546711,216,6.284832317,2.898054584,Cs1Cl1O4,0.011967105,133.1363106,,-1.50290349,-26.31974334,520,0.0006251
mp-546757,146,10.83996093,4.185124764,Sn3P1O4F3,0,201.5983372,,1.81380513,-65.36049264,520,0
mp-546790,129,0.858836487,6.99924791,La2Cu2Te2O2,0.006948041,164.1979215,,7.68264574,-49.462674,520,0.0001018
mp-546794,122,-9.663949029,2.116918624,Si16O32,0,754.0947468,,-0.65692075,-379.9356968,520,8.85E-06
mp-546810,12,11.87825241,2.665851937,Rb2C4O4,0.197863198,176.2636135,,0.53058913,-69.08169155,520,1.55E-05
mp-546846,139,34.26252958,7.595580469,Ba1Bi4I2O4,0.283912629,282.2493253,,,-51.42997273,520,0.0792232
mp-546864,164,2.713211381,4.151848129,Y2C1N2O2,0,99.9217924,,1.89494425,-63.85758315,520,0.0005834
mp-546920,12,5.831601019,1.805970338,Li2C4O4,0.262031834,115.7821127,,0.76239286,-71.26718099,520,0
mp-546973,221,4.44611225,6.061479732,Sr1Sn1O3,0.047590028,69.67307056,,4.2943577,-31.4293822,520,1.60E-06
mp-547017,5,5.7969987,3.952491153,Li1Al1As2O7,0.021130617,124.2567187,,1.97219653,-69.13658685,520,2.00E-07
mp-547029,215,77.35939994,1.60003383,Na3S1O4F1,0.336907294,190.9894093,,,-44.97685099,520,0
mp-547094,15,29.4604925,2.983573786,Ru2O8,0.001994674,183.7401812,,-2.91557455,-64.41418467,520,2.56E-05
mp-547271,127,4.131183843,7.129166308,Re2O6,0,109.1030455,,1.92875729,-67.52463175,520,3.83E-05
mp-547792,148,-123.5320721,4.300712105,K2Sb2O6,0,161.2823009,,1.39317487,-56.56529466,520,5.55E-05
mp-547864,166,28.70962536,4.035450095,Cd2C2O6,3.211951861,141.8974184,,,-31.35056396,520,0.9472196
mp-547956,12,4.780028639,3.806146895,Mn1V2O6,0.01592109,110.2987481,,,-68.64085501,520,5.0000002
mp-548403,20,13.11002978,3.173265126,Ca2C2O6,0.31020209,104.7490192,,2.44566148,-71.78404245,520,0
mp-548609,12,9.872852349,5.974788817,Tl2Cu1S2O6,0.113255248,175.7701706,,3.29500152,-57.80867441,520,0.9999392
mp-548658,63,8.593196247,2.763499638,Rb2P2O6,0.049209082,197.6180064,,-0.71715373,-64.63313587,520,0.0001021
mp-549158,194,-0.662422795,6.137718631,In2Cu2O4,0.005584162,113.8258897,,5.12294715,-42.60570778,520,5.00E-07
mp-549207,8,10.55191488,1.908312289,Li4C1O4,0.248490173,90.29861436,,0.2790087,-51.33023311,520,0
mp-549308,42,2.40105292,3.49406204,Li1Ge1B1O4,0.203039631,73.37304124,,1.42916652,-46.28874662,520,9.00E-07
mp-549389,8,8.025601405,2.431314383,Li4C1O4,0.184355429,70.874403,,1.58753752,-51.90744581,520,0
mp-549490,123,6.666022487,5.59473063,K1Nb4O5F1,0,151.2867599,,4.32189596,-92.98879892,520,2.33E-05
mp-549565,8,16.1062959,2.225854465,Li4C1O4,0.316174548,77.41654189,,1.28070593,-50.72107374,520,0
mp-549580,139,63.01181596,4.019896326,Sr2Cu3I2O4,0.37781988,282.416455,,,-48.89177164,520,0.1821425
mp-549589,129,1.785705409,6.329917673,La2Zn2As2O2,0,154.8993365,,5.95140615,-46.7465934,520,6.60E-05
mp-549590,63,15.41164965,2.929895779,Rb2Cl2O4,0.271870579,173.3365177,,1.07302834,-30.9309561,520,0
mp-549697,149,8.555234224,4.280151017,Rb1Ge1I1O6,0,147.8171608,,0.14146859,-46.35282889,520,0.000223
mp-549706,186,3.172490523,2.757529252,Mg2O2,0.07414232,48.54130171,,1.86916008,-23.63951378,520,0
mp-549737,12,6.767169992,4.541572182,Ba2Ca1B2O6,0,158.0806578,,1.69678876,-80.22907157,520,0.0003201
mp-549869,121,12.95655886,2.523801691,K4C1O4,0.194862824,152.9089092,,1.10665194,-45.39148678,520,1.48E-05
mp-550008,221,-0.409816246,7.405005743,Sc1Bi1O3,0.356831134,67.70744846,,4.41085238,-35.24326895,520,0.0001251
mp-550086,12,1.407922269,4.061626775,V2Cu1O6,0.027035882,106.8801017,,,-62.18277601,520,0.9770762
mp-550172,58,7.524006073,6.62786602,Sn2O4,0.002298078,75.51686933,,5.46836903,-37.68708695,520,0
mp-550314,146,32.50639494,3.556811045,Rb4C1O4,0.265455997,195.091956,,,-43.69815692,520,0
mp-550320,5,5.015862822,2.107152885,Li4C1O4,0.132431813,81.77762356,,0.5831498,-52.37475835,520,0
mp-550433,122,-4.241108169,4.750974765,Be2Zn2O4,0.048764183,74.39085388,,1.72003415,-46.22339415,520,0.0003763
mp-550436,12,0.921663071,4.550931415,V2Cd1O6,0.016816458,113.2184329,,,-60.73911748,520,0
mp-550469,99,-0.186209843,7.312611601,Ti1Zn1Bi2O6,0.072200998,142.43136,,4.41230392,-64.32173779,520,0.0005764
mp-550474,160,11.25748514,1.887881316,Li4C1O4,0.194649387,91.27584134,,0.19497933,-51.81480019,520,3.79E-05
mp-550498,5,8.857922612,1.879290265,Li4C1O4,0.147630403,91.6931028,,-0.06426928,-52.23797104,520,0
mp-550506,160,11.90657156,2.282709342,K1Cl1O3,0.033138258,89.14767438,,-0.28353259,-21.41876847,520,0
mp-550514,12,1.280244674,9.057114745,La2Ta2N4O2,0,133.4230524,,7.38613109,-96.19171994,520,0.0001046
mp-550547,8,-0.73469762,2.048277501,K4C1O4,0.260917581,188.4079494,,0.70966287,-44.79699397,520,0
mp-550579,225,3.733205774,8.835949351,Sc1Ta1Pb2O6,0.018412568,138.3728183,,4.2928033,-78.84465549,520,2.61E-05
mp-550593,160,11.48896814,2.356321675,Li4C1O4,0.322807789,73.13006422,,1.61575345,-50.66137457,520,0.0001363
mp-550635,123,4.5879789,8.811567132,Lu1Bi2I1O4,0,147.7126691,,,-49.1570343,520,0
mp-550679,23,17.39378134,3.707065452,Rb4C1O4,0.200719732,187.1845083,,,-44.2807833,520,0
mp-550685,225,6.109763506,5.804636946,Ba2Ca1Te1O6,0,154.0002127,,3.05398345,-62.41113881,520,1.01E-05
mp-550714,29,35.26686863,7.885728893,Pb4O4,0.022385114,188.0010446,,3.22049922,-43.46563289,520,0
mp-550751,8,3.604057658,3.982585051,Ba1Be1Si1O4,0,99.41018262,,1.64028687,-51.39421545,520,7.20E-06
mp-550759,216,5.00426836,2.611351882,Rb1Cl1O4,0.024082798,117.5882211,,-1.49140331,-26.25660863,520,0.0003293
mp-550798,5,11.28203487,1.189429396,Li4C1O4,0.282374486,144.8744717,,-1.49713369,-51.0252743,520,0
mp-550805,123,4.678444423,8.571992102,Lu1Bi2Cl1O4,0,134.125341,,3.6702851,-50.42482235,520,0.0017292
mp-550893,225,2.600174151,10.69261872,Hf1O2,0.088616181,32.68842543,,4.27524782,-30.27247729,520,3.41E-05
mp-550895,8,-3.207902054,2.214790768,K4C1O4,0.220990877,174.2429891,,0.71589751,-45.1563343,520,0
mp-550908,127,8.105223666,7.490188759,Sr2Hf2O6,0.012824989,139.2725726,,2.28615302,-86.85963733,520,2.50E-07
mp-550925,5,7.386046325,3.646225961,Na1Sc1As2O7,0,150.1882615,,0.67742217,-72.73922533,520,1.22E-05
mp-550998,99,-0.194700179,7.420404278,Ti1Zn1Bi2O6,0.062997796,140.3623276,,4.00925566,-64.41376981,520,0.0003746
mp-551092,12,4.882266292,3.556776287,K2Li2Zn2O4,0,133.9412381,,0.52147685,-43.73092606,520,7.44E-05
mp-551135,5,6.190643371,4.066482035,Ba1Cu1B2O5,0.032282566,123.5219462,,1.87088864,-63.93731813,520,0.9999896
mp-551176,5,-2.381565558,3.704408411,Rb4C1O4,0.204125464,187.3187691,,1.38889209,-44.25013171,520,0
mp-551203,72,18.81617439,4.483095454,Sr4I4O2,0,329.6919063,,,-44.3127678,520,1.10E-06
mp-551243,63,18.88408712,6.313055001,Ba2Bi2I2O4,0,265.7737152,,2.32863226,-52.78243723,520,7.67E-05
mp-551267,8,-35.13038093,3.140768733,Rb4C1O4,0.25701344,220.9348356,,1.03952064,-43.77413993,520,7.60E-06
mp-551269,148,5.906798206,6.312140029,Ba2La1Sb1O6,0,166.0807023,,,-68.7814898,520,0
mp-551283,12,6.230575017,4.679536627,Na2Cu2Te1O6,0.010594221,140.7580815,,6.04573521,-55.8816189,520,0.0004334
mp-551437,8,-11.51901209,3.36495049,Rb4C1O4,0.222820721,206.215582,,-2.86441952,-44.0818744,520,0.0003944
mp-551470,12,13.72561962,9.508463268,Tl4O2,0,148.3605723,,4.07102279,-22.8753361,520,7.00E-07
mp-551561,5,8.933711739,2.442317375,K4C1O4,0.188678363,158.0104894,,1.06698332,-45.44714693,520,0
mp-551601,12,1.78609041,4.027733861,V2Zn1O6,0.024840628,108.547556,,,-61.35732527,520,0