material_id,spacegroup.number,delta_volume,density,full_formula,e_above_hull,structure.lattice.volume,band_gap.optimize_structure_gap,efermi,final_energy,encut,total_magnetization
mp-13356,148,6.435442449,5.905097528,Ba2Sr1Te1O6,0,164.7492979,,2.61124408,-61.53308495,520,7.23E-05
mp-13361,2,9.973472682,4.601962848,Cd2Cu1P2O8,0,172.5901874,,1.92034593,-78.69915703,520,0.9998939
mp-13363,12,5.26087531,16.71854082,Si2Pt6,0.023522132,121.8372912,,8.28017083,-51.33813966,520,5.50E-07
mp-13364,194,-3.399877784,4.651338121,Ca4Zn8,0.023795358,244.0411532,,2.92043596,-21.48766507,520,9.50E-07
mp-13365,194,3.70048325,5.240343306,Sr4Zn8,0.049860768,276.8710412,,2.5890228,-19.19385252,520,2.72E-05
mp-13369,164,7.553972677,7.452963958,Ba3Ca1Ir2O9,0.020979544,218.4550935,,3.8772779,-99.1249028,520,0.0011085
mp-13383,163,78.0967323,4.075886847,Sc2Ag2P4Se12,0,561.0232593,,1.68822125,-92.36602221,520,7.25E-05
mp-13396,225,2.99031603,8.080579281,Li1In2Rh1,0,69.76281341,,7.42024951,-16.42891234,520,8.90E-06
mp-13406,186,7.956678725,8.949578051,La2Ag2Pb2,0,168.4640321,,6.84147703,-25.9935649,520,6.75E-06
mp-13415,127,-2.030450367,14.70362478,Ta6B4,0,127.4947159,,6.56142626,-104.5849373,520,1.76E-05
mp-13416,127,1.167560131,6.207418645,Sc4In2Ni4,0,172.3380555,,6.56954072,-59.15641428,520,5.40E-06
mp-13427,127,15.90647303,5.878161872,Sr6Hg4,0,375.1731811,,2.35042758,-15.78869447,520,1.85E-05
mp-13429,127,4.030294109,8.303329627,La4Cd2Rh4,0,238.3949597,,6.78471091,-57.52877411,520,4.23E-05
mp-13434,216,-0.57728413,5.803054031,Ca1Mg1Ni4,0.006893941,85.60340998,,5.88368704,-27.91499846,520,0.1052055
mp-13445,63,16.60200169,5.320339149,Rb4As4Pt2,0,322.0134261,,2.42578659,-39.54592025,520,4.00E-06
mp-13446,189,-1.932306101,7.661609983,Co6P3,0.023904565,96.77661105,,8.36641588,-63.36406908,520,1.080483933
mp-13447,12,3.762003982,7.514886418,Zn13Rh1,0,210.6303525,,3.3709517,-25.60578658,520,0.0010687
mp-13459,62,18.93468736,5.110751575,Na4Cd4Sb4,0,334.2173774,,3.35698543,-29.44286756,520,0.0002703
mp-13463,123,1.416292185,15.17114901,Fe1Ni1Pt2,0,55.24200445,,6.77078863,-27.20529144,520,0.0048398
mp-13472,62,3.290621358,10.76733153,Hf4Si4Rh4,0,190.912774,,7.32753604,-103.7914891,520,1.23E-06
mp-13480,221,-12.90358104,7.997676986,Cu3N1,0.795171179,42.48990229,,6.48473003,-17.06966428,520,0.0016084
mp-13496,221,4.581089144,8.651609884,Zr1Pd1,0.058201375,37.93462516,,5.13421589,-14.91235511,520,7.30E-06
mp-13503,194,2.681382916,5.692297983,Sc4Zn8,0,205.1048234,,3.65159669,-39.58710856,520,0.00198545
mp-13520,63,2.948162075,3.207975619,Na4Zn2Ge2,0,190.5167676,,1.47483866,-18.22931756,520,3.20E-06
mp-13541,12,3.972223666,4.086794218,Sr2Mg1B2O6,0,128.8692749,,2.32956353,-78.96445537,520,0
mp-13545,148,8.449364606,5.96541277,Ba1Ir1F6,0,123.4627422,,0.70584767,-41.58654318,520,1.0120827
mp-13548,194,-21.92467401,6.316642246,Cs4Pt2,0.040540179,242.3230417,,1.83834911,-15.45197694,520,6.80E-06
mp-13554,167,8.091585514,9.218079553,Sn2Hg2O6,0.063697162,132.3297324,,3.99612235,-48.72435756,520,5.62E-05
mp-13560,225,12.93102455,9.327756797,Y1B2Pd7,0.138517516,152.2914666,,4.96512852,-59.7394747,520,7.10E-05
mp-13570,127,1.507493755,4.167054229,Mg2Sc4Ga4,0,202.1653663,,3.76795148,-45.74457799,520,6.46E-05
mp-13580,62,6.599796449,12.97718142,Lu4Ge4Pt4,0,226.584083,,5.26509578,-74.28598957,520,2.00E-06
mp-13589,215,-0.499668444,1.854939684,Cu1B1C4N4,0.354078129,159.7272071,,-0.28116683,-78.8930554,520,4.86E-05
mp-13590,215,6.362605247,1.182534513,Li1B1C4N4,0.336264449,171.064371,,-4.26296083,-78.96489124,520,0
mp-13610,148,9.779595594,5.320585266,Zn1Pb1F6,0,120.6565437,,-1.97115131,-32.83768123,520,3.41E-05
mp-13630,164,4.227523478,3.320568189,Rb3Na1Be2F8,0,224.7368837,,-2.49749499,-69.56574714,520,0.0001656
mp-13658,59,25.11745302,2.95058557,Rb2N2O6,0.000558861,165.9902212,,-0.57132535,-58.16687313,520,8.95E-05
mp-13675,223,10.28008455,8.247386496,Cd2Pd6O8,0.006233091,199.597063,,3.97407083,-81.80452318,520,1.77E-05
mp-13676,63,12.28676834,6.022790831,Tl2P2O8,0,165.0696885,,2.47302271,-74.3390047,520,0
mp-13682,61,37.05078404,4.276524589,Pd4S8,0,264.8926037,,3.34394638,-56.99442708,520,2.51E-05
mp-13687,225,15.02836012,4.202999869,Cs2K1Ag1F6,0,208.1176689,,-1.28998911,-38.4280166,520,1.9999658
mp-13688,62,5.176087799,8.300224904,Ge8Mo4,0,193.0334331,,6.19989787,-82.36073188,520,0
mp-13725,31,5.457833768,2.388292951,Li6P2O8,0,161.0196593,,0.55000622,-100.4067249,520,0
mp-13743,12,11.36831272,2.986213144,K6Ga2O6,0,261.3700966,,0.05706074,-64.82154457,520,2.49E-05
mp-13744,12,15.18325751,4.211804088,Rb6Ga2O6,0,295.0035145,,0.48838817,-63.11254682,520,1.29E-05
mp-13798,225,-263.3805727,3.964532777,K2Na1Tl1F6,0,175.7321596,,-2.15448846,-41.83367014,520,0.0003776
mp-13799,225,-261.8842021,2.849095978,K2Na1Y1F6,0.011066739,177.2285302,,-2.83787551,-54.51072498,520,7.29E-05
mp-13800,225,-40.25752499,5.210617979,Cs2Na1Tl1F6,0,193.4965846,,-1.54410571,-41.46243724,520,0.0003961
mp-13841,43,10.96397377,6.484657169,Ir2F8,0,137.3624486,,0.10545769,-46.31181516,520,1.0247223
mp-13852,176,5.859117996,5.122599738,Ge6N8,0.001753548,177.6048802,,3.31113747,-94.98091804,520,8.23E-05
mp-13853,204,6.625418671,7.171876376,P12Ir4,0,264.0777564,,8.69651433,-110.6702434,520,2.98E-06
mp-13854,194,1.494717594,8.188289604,B6Ru4,0,95.14016798,,8.38315392,-80.50638705,520,1.62E-05
mp-13861,176,8.161685668,14.95047079,Hf2B8Ir6,0,177.3522025,,9.18960466,-134.8994968,520,1.12E-05
mp-13868,43,9.695806418,4.473437929,Pd2F8,0,135.4237749,,,-36.84693104,520,0
mp-13870,160,13.3763022,7.827166673,Ta2Se4,0.010103792,143.782129,,3.64096504,-42.50480461,520,0.0006637
mp-13871,15,8.927285888,15.53597055,P4Pt10,0,221.7549611,,7.80297542,-87.65201148,520,4.70E-06
mp-13898,225,-1.206412419,4.585405214,Cs2Na1In1F6,0,187.4447437,,-1.50220601,-44.59261952,520,0.0004721
mp-13900,141,2.76628555,5.451742771,Sr2Cu4O4,0,150.2906253,,3.53728514,-53.41821989,520,3.00E-07
mp-13903,148,7.241142804,4.280992398,Zn1Sn1F6,0,115.632611,,-1.89562042,-35.95719012,520,8.00E-07
mp-13907,148,10.87807958,4.363477908,Cd1Sn1F6,0,131.3335364,,-2.7264945,-35.36110689,520,1.34E-05
mp-13914,225,-1.48801237,7.425340972,Li1Co2Ge1,0,44.15542676,,4.677858,-21.62350395,520,0.0027126
mp-13915,225,0.801238461,7.500201779,Li1Ni2Sn1,0,53.80838636,,7.60406783,-18.5553507,520,0.0002993
mp-13920,129,15.62734789,6.339679809,Ba2Zn4Sn4,0,264.8431609,,4.71094659,-29.04461467,520,4.00E-06
mp-13922,62,19.52155061,4.799969282,Ba8Ge4,0,480.5824466,,2.34827193,-39.7506704,520,1.95E-06
mp-13925,225,7.917041472,4.192217314,Cs2Na1Y1F6,0,194.7613655,,-2.13665858,-54.11146968,520,1.11E-05
mp-13926,225,-255.2268471,3.583406208,Rb2Na1Y1F6,0,183.8858852,,-2.68028709,-54.41157917,520,3.59E-05
mp-13946,164,9.274596334,3.725272981,Rb2Zr1F6,0,167.6687306,,-3.19098465,-52.15384296,520,7.94E-05
mp-13947,164,8.320590505,4.657619568,Rb2Hf1F6,0,165.217528,,-3.11407532,-54.4000709,520,9.10E-06
mp-13948,164,10.23471762,4.956427387,Cs2Hf1F6,0,187.0428971,,-2.7268688,-54.34208282,520,8.72E-05
mp-13962,129,1.045539988,8.56801963,Hf2Si2Se2,0,110.677348,,7.02317171,-43.74606741,520,1.55E-06
mp-13963,129,7.359408274,8.018267847,Hf2Si2Te2,0,138.4118053,,6.44470829,-41.36432533,520,1.65E-06
mp-13964,129,2.491755089,9.69057341,Hf2Ge2Te2,0,129.7954051,,7.00806638,-39.44438675,520,3.50E-07
mp-13982,31,7.623608008,4.497221492,Cd2Cu4Ge2S8,0,325.2258649,,3.85780299,-67.03418259,520,2.04E-05
mp-13983,148,7.423643022,4.552366699,Zn1Pd1F6,0,104.2566066,,-1.99652884,-30.94123252,520,0.000182
mp-13984,148,9.730539983,4.726392973,Cd1Pd1F6,0,116.9312334,,-2.2571581,-30.37640659,520,6.10E-06
mp-13993,148,0.03267577,3.866460786,Ti3Ni1S6,0,169.5061429,,6.14359265,-66.19919883,520,1.41E-05
mp-13995,70,20.24661322,8.077131149,Hg4Ge2O8,0,221.1347333,,,-62.36875417,520,0
mp-14017,194,15.52163292,2.244518499,K6Sb2,0,353.7150568,,0.71050402,-18.15741532,520,0
mp-14018,194,11.30460052,2.06544996,K6As2,0,309.0687343,,0.52302225,-18.56237321,520,2.40E-06
mp-14024,167,36.92681199,6.592173721,Zr6O2,0.000328744,145.933857,,5.00049536,-72.16521668,520,5.50E-06
mp-14025,227,5.698523812,4.359102223,Zr4Cu2S8,0,285.1336565,,5.0492228,-93.77091265,520,1.32E-05
mp-14036,225,-0.623448678,3.781187871,K1Rb2Rh1F6,0,187.489661,,-0.10010758,-45.39722321,520,1.27E-05
mp-14037,225,8.120346044,6.605426466,Na1Tl2Rh1F6,0,163.0647853,,1.68853544,-44.24554933,520,1.47E-05
mp-14038,225,-276.4559277,4.194013214,Rb2Na1Rh1F6,0,162.6568046,,0.1835533,-45.95277227,520,9.10E-06
mp-14039,225,-284.5111843,3.416447408,K2Na1Rh1F6,0,154.601548,,0.086649,-46.22234014,520,2.30E-06
mp-14069,227,5.424295924,4.611660934,Cs2Al2O4,0,138.186155,,2.45905592,-49.12345462,520,4.00E-07
mp-14070,227,9.847824212,3.591383762,Rb2Al2O4,0,133.5762421,,1.57535252,-49.38488983,520,0
mp-14088,225,12.04331761,3.83618134,Rb2Pd1F6,0,169.3990157,,-2.61525351,-37.41524346,520,8.34E-05
mp-14099,221,8.708395783,5.658776233,Zn1Ag1F3,0.035611661,67.57226478,,-0.91837479,-18.44725331,520,7.72E-05
mp-14100,227,-2.094938764,7.137701742,Cd2Rh4O8,0,177.8417173,,3.45095638,-82.32762722,520,0.00010575
mp-14105,227,4.960483127,6.618873568,Al2Tl2O4,0.027324217,132.1450241,,3.34410606,-48.71362532,520,0
mp-14115,166,1.662391383,5.99156146,Li1Rh1O2,0,39.31189888,,4.05798385,-24.00490278,520,2.00E-06
mp-14116,166,1.851180097,6.765950589,Cu1Rh1O2,0,48.70482962,,4.2479309,-23.81293611,520,2.70E-06
mp-14142,148,3.291943508,5.007409958,Ti2Zn2O6,0.028041437,106.9623248,,2.27041912,-71.79534678,520,7.28E-05
mp-14172,213,3.72462101,3.377118727,Sr4Si8,0.003015256,282.8098014,,5.3874623,-54.49207323,520,4.00E-07
mp-14175,121,11.31106527,2.910369559,K3Nb1O8,0,192.9612191,,0.37039797,-69.48296056,520,4.00E-07
mp-14205,166,6.585491192,3.788904476,K3Cu3As2,0,200.6266166,,2.03744318,-27.41286876,520,6.60E-05
mp-14206,166,10.11380817,4.241941592,K3Ag3As2,0,231.2505476,,1.12969251,-24.06058336,520,2.64E-05
mp-14208,189,1.118127564,3.410358219,Li3Y3Si3,0,181.0318673,,3.64415703,-46.9244784,520,5.67E-07
mp-14209,189,2.556930512,4.523831016,Li3Y3Ge3,0,185.536766,,2.79345965,-45.60086659,520,8.67E-07
mp-14222,227,6.635233114,6.862619972,Tl2Ga2O4,0.118084055,148.135689,,1.71942796,-40.67149052,520,4.08E-05
mp-14226,225,56.69188745,4.694802361,Ba2Y1Sb1O6,2.083966985,205.6100031,,1.97224192,-49.95682821,520,0.0107097
mp-14285,14,-0.078545412,5.113649859,Co4P8,0,157.0128254,,8.17552977,-78.07140376,520,3.75E-07
mp-14305,227,-0.464650794,5.445111651,Lu4Mn2S8,0,325.1674643,,2.84803885,-92.53546815,520,5.0000139
mp-14307,227,6.36086509,2.628247702,Mg2Sc4S8,0,306.3959552,,2.90288502,-86.56919714,520,6.40E-06
mp-14395,15,10.55993089,3.72226696,Na2Al2As2O8F2,0,185.4824797,,1.96209328,-98.17447091,520,1.58E-05
mp-14398,148,4.63551844,4.01964795,Ca1Sn1B2O6,0,114.1850291,,2.54112202,-73.30121171,520,1.92E-05
mp-14433,36,4.793743845,4.627618072,Na2Ge4N6,0,150.9176134,,2.80574053,-73.63385224,520,3.90E-06
mp-14434,12,16.4450027,2.309119912,K6Ge2S6,0,411.5246393,,0.69426409,-55.20759046,520,1.47E-05
mp-14435,12,20.20676415,3.069629088,K6Ge2Se6,0,461.7774877,,0.28313247,-50.79086315,520,2.31E-05
mp-14437,166,2.642127732,4.863329457,Rb1Y1O2,0,70.46397186,,1.342774,-28.05955623,520,4.61E-05
mp-14445,70,3.546042904,9.914499,Ca2B4Ir4,0,149.4423317,,6.10985633,-72.87206829,520,4.90E-06
mp-14447,11,25.58281994,4.618978533,Ba4Si2Se8,0,444.7630149,,1.889917,-66.85333385,520,0.0001773
mp-14448,11,23.23714752,4.9728885,Ba4Si2Te8,0,543.0445041,,3.30836444,-58.54963004,520,1.55E-06
mp-14476,227,10.70155256,5.905075372,Li4Rh4O8,0.009875041,159.5506533,,3.98612502,-95.86161046,520,1.51E-05
mp-14549,225,-0.16011521,6.965343559,Cu1O1,0.16905844,18.96363633,,5.76796624,-9.9011945,520,0.0016571
mp-14622,70,4.218917779,11.08964507,Y2B4Ir4,0,148.2289956,,6.69717552,-82.43488059,520,1.20E-06
mp-14623,194,79.61312436,2.470690716,K10Cu2As4,0,549.6134022,,1.09487277,-43.4511255,520,0.0001691
mp-14624,194,18.2352995,2.830878929,K10P4Au2,0,533.0911326,,1.40432893,-45.29642315,520,0.0011145
mp-14628,148,5.842263579,6.456457825,Zn2Sn2O6,0.054529699,119.396636,,3.82016182,-55.35678518,520,3.05E-06
mp-14651,12,13.93520462,4.128301919,Zr2Ag1Pd1F11,0,243.6399907,,-0.62132465,-87.99045759,520,1.9999269
mp-14653,2,21.74566533,3.983889366,Ag1Sb2F12,0,241.4888614,,-2.50438354,-64.27981805,520,0.9990131
mp-14659,9,56.21036588,3.291437767,K4As4Se8,0,548.777589,,0.44062673,-60.91177227,520,3.35E-06
mp-14696,69,3.733027577,8.69580776,La2B4Rh5,0,159.5616303,,8.37157861,-80.94600125,520,0.0003386
mp-14763,63,0,3.322379706,Ca12Mn4N12,0,434.214109,,4.69227031,-184.9735643,520,0.9944353
mp-14791,164,9.076899616,6.081725558,Ge2Te5As2,0.014632804,254.7776101,,5.24477677,-34.58134657,520,0.0001582
mp-14793,194,3.857113088,6.553517807,Mg4Si2Pt2,0,137.7277009,,6.67713377,-34.31702872,520,8.80E-06
mp-14796,166,21.10469179,6.848219085,K2Pt4Se6,0,323.0509783,,2.25243376,-55.15907538,520,1.25E-05
mp-14797,166,26.7652078,6.94688595,Rb2Pt4Se6,0,340.6304094,,2.10113038,-54.95583457,520,2.75E-05
mp-14928,227,4.152805469,4.414078158,Sc4Mn2Se8,0,346.6153001,,3.16258266,-90.40753889,520,1.16E-05
mp-14951,12,12.80365863,3.851181311,Rb6Al2O6,0,285.7692715,,1.03598655,-69.6388885,520,1.30E-06
mp-14983,1,3.078815304,3.657795924,Si4P4Ru1,0,153.1281497,,6.86830154,-55.84810328,520,0.0001207
mp-15056,12,8.034199447,3.373468064,Na1Zr2Ti1F11,0.005830685,227.5539404,,2.88278892,-98.30842208,520,2.0061211
mp-15065,227,3.861742157,7.841957091,Cu2Ir4S8,0,244.0383199,,5.89372498,-81.78093456,520,0.0001447
mp-15074,154,10.99666907,9.336429071,Sr3P6Ir6,0,284.9259727,,6.67815338,-104.1592674,520,1.33E-07
mp-15120,63,10.21394704,4.495598559,Rb2Fe4Se6,0.027121985,320.6410458,,2.07769321,-62.77645464,520,0.0065621
mp-15141,12,14.78476243,3.555195416,Na1Zr2Zn1F11,0,224.1157049,,-2.83503396,-90.19539946,520,6.10E-06
mp-15144,7,11.11194419,6.008714233,Zn2Ag4Ge2O8,0.016502623,230.9129557,,0.90275553,-78.86786668,520,1.25E-06
mp-15208,216,11.16629398,6.06040265,Nb4Ga1Se8,0.004308924,294.0078162,,4.06399465,-81.83587366,520,0.0039317
mp-15226,160,0.922501757,11.63028123,Cr1W1N2,0.085518203,37.67169397,,9.27372262,-40.37482134,520,0.0002931
mp-15252,9,2.507859707,4.364836771,Cu4Ge2S6,0,225.1622969,,4.69089963,-54.28389273,520,5.70E-06
mp-15297,189,2.940914939,12.20988129,Hf6Ni1Sb2,0,186.7483209,,6.57862426,-78.21837404,520,9.40E-06
mp-15322,189,0.266574403,4.842132914,Sc3Si3Cu3,0,140.5219977,,6.78330289,-53.58370565,520,1.40E-06
mp-15325,12,11.83910502,5.245541029,Ba2As6,0,229.2490199,,3.93259857,-36.79546881,520,1.30E-06
mp-15349,36,5.313895749,3.354531819,Li4Ge2O6,0,133.1786704,,-0.01593024,-70.30098847,520,1.60E-06
mp-15567,167,8.97963446,3.797569766,Na6Au2S4,0,288.6515893,,1.04090815,-41.85143193,520,1.68E-05
mp-15571,167,21.28946011,3.603177261,K6Au2Se4,0,435.2135388,,-0.13471823,-38.96826827,520,8.96E-05
mp-15607,131,3.0513063,2.601915233,Ca2B4C4,0.145457964,109.4145801,,5.04566092,-69.48647097,520,5.00E-08
mp-15613,227,6.79949292,5.474004742,Cu2Rh4S8,0,241.2341905,,5.29756497,-76.71449264,520,1.94E-05
mp-15614,227,11.07658182,6.906389423,Cu2Rh4Se8,0,281.4039015,,4.3228198,-70.92644425,520,4.31E-05
mp-15622,11,19.80869679,6.660320395,Hf2Se6,0,207.118595,,2.98666831,-48.97387714,520,2.28E-05
mp-15626,225,-276.4506271,3.632015025,Rb2Na1Ti1F6,0,162.6621052,,3.10747095,-53.21872791,520,0.9998962
mp-15635,225,26.61384326,6.373865786,Ti1Tl3F6,0.096902954,201.9072809,,4.15647245,-50.23338954,520,0.8349223
mp-15637,148,6.330294547,4.467921164,Zn1Rh1F6,0,104.9209067,,-1.07255818,-34.1531952,520,1.0236654
mp-15638,148,8.129809794,4.642049732,Cd1Rh1F6,0,117.7986077,,-1.29218753,-33.57348338,520,1.0178134
mp-15639,148,8.408429377,5.775511347,Hg1Rh1F6,0,120.0329505,,-1.17631383,-30.64498108,520,1.0235871
mp-15641,62,2.14592002,3.215540903,Ca4Mg4Ge4,0,283.040456,,3.60113268,-39.77402456,520,6.00E-07
mp-15642,62,5.529199153,3.031917321,Sr4Mg4Si4,0,306.7272312,,3.979009,-39.59936974,520,2.61E-05
mp-15643,62,11.22304073,3.887710417,Sr4Mg4Ge4,0,315.3294407,,3.24230759,-38.10453453,520,2.50E-08
mp-15649,14,9.236426332,10.45360232,As8Ir4,0,217.3429977,,6.37435751,-78.38330762,520,3.38E-06
mp-15650,62,11.50814345,9.409154412,As4Ru4,0.033135432,124.2368484,,7.78170778,-57.83827195,520,3.63E-05
mp-15651,160,-0.052432382,7.121003504,Ni3Se3,0,96.2977386,,6.32642386,-29.51698357,520,9.50E-05
mp-15652,166,8.064525562,9.494748048,Rh3Pb2S2,0,137.6817521,,6.88882075,-40.34527933,520,5.69E-05
mp-15657,189,-115.8964876,5.762012978,Ti3Co3Si3,0.021727508,116.6170382,,7.70169246,-68.39716934,520,0.0025447
mp-15660,221,1.536111461,7.575283779,Nb4C3,0.17105634,89.36053259,,6.29769388,-70.59462995,520,4.70E-06
mp-15661,220,1.428251056,3.799359201,Sc8C6,0,188.682816,,5.62747354,-112.8082552,520,1.07E-05
mp-15668,194,8.493684259,3.245401308,Na4Se4,0,208.6540997,,1.46005863,-25.85668081,520,1.18E-06
mp-15679,194,9.312340628,8.039371766,Co4As4,0.031482755,110.5912846,,6.76656803,-49.18710863,520,2.18E-06
mp-15683,189,5.734867865,8.359149195,Cr3As3Rh3,0.068846211,136.9626455,,6.79537858,-67.24236393,520,0.273981833
mp-15684,63,5.254095964,3.15124103,K4Cu2As2,0,228.3413799,,1.71245733,-24.73941482,520,1.77E-05
mp-15685,63,-0.889702922,3.605263605,Na4Cu2As2,0,169.9080611,,2.54431933,-25.75282098,520,3.29E-05
mp-15686,194,0.557897676,4.188176408,Li4Cu2As2,0,120.8079287,,3.72659498,-29.30606232,520,7.00E-07
mp-15687,187,3.451178303,3.602537949,K1Zn1As1,0.007806157,82.70521993,,1.51967215,-8.43649173,520,2.66E-05
mp-15695,194,9.534701722,9.661205904,Y4As4Pt4,0,246.7544861,,5.78812303,-83.49606141,520,0.000111825
mp-15698,193,12.25850176,4.251614598,Sr10As6,0,517.7858215,,3.20731351,-61.77375707,520,0.00026965
mp-15724,225,2.906322102,2.890427088,K1Na2Sb1,0,118.827528,,2.17209677,-9.5923067,520,6.80E-06
mp-15733,15,7.731491015,5.230536271,Ca2Ta2Al2O10,0,208.2632121,,1.93948015,-133.5882462,520,6.35E-06
mp-15776,82,9.927560633,4.915219431,Zn1Ga2Se4,0,175.9096186,,1.50857749,-25.80759238,520,0.0001301
mp-15778,216,0.986114718,6.040045379,Mg1Ni1Sb1,0,56.29251035,,6.74544897,-12.72641167,520,0.0001822
mp-15779,166,-0.654833568,5.278673348,Mg2Si1Ni3,0,79.51693362,,7.06569833,-28.76211167,520,1.11E-05
mp-15780,123,7.184763035,15.65837471,Mg1P1Pt5,0,109.3035238,,7.09330088,-41.42414927,520,0.0015214
mp-15781,166,-8.085841274,3.411283839,K1La1S2,0,117.8654715,,2.41983102,-21.96921498,520,1.10E-06
mp-15788,166,0.704851005,3.23512601,Li1Y1S2,0,82.11358819,,2.58595212,-24.03997922,520,0
mp-15794,166,1.589321744,4.504591825,Li1Y1Se2,0,93.54671363,,2.24828896,-22.16757105,520,1.00E-06
mp-15798,194,11.52303304,8.525384599,Mo6C6,0.248778221,126.1571367,,9.77400639,-118.4679873,520,0.00016355
mp-15799,194,19.45997076,7.998602174,Nb4N4,0.202802195,88.78218437,,7.59194967,-80.66603748,520,3.86E-05
mp-15801,164,4.586392797,6.462759192,Zr3P1O2,0.364749815,86.4973336,,7.39535972,-52.10523782,520,0.0016746
mp-15803,227,13.60538171,4.291750054,Y4Mg2Se8,0.009552272,400.8096047,,1.7606968,-80.86936037,520,1.29E-05
mp-15805,221,-4.955009992,7.447451386,Mn3Zn1N1,0,54.45529682,,5.57120117,-38.07668324,520,4.4832503
mp-15844,129,6.746347764,5.639485074,Ta2P2O10,0.048531324,171.9101284,,1.4782276,-119.9874375,520,0.00010075
mp-15862,216,33.84380787,4.535418028,Ga1Mo4C1S8,0.485065866,264.3487169,,5.910559,-92.41959639,520,0.0004217
mp-15896,9,6.458690288,5.104662176,Si2Cu4Se6,0,255.0714473,,4.36043588,-51.57924124,520,7.30E-05
mp-15939,155,5.796885052,2.657865552,Sr1Al2B2O7,0.000964463,171.9356347,,0.22337244,-91.52059584,520,0.0004337
mp-15951,152,6.669352118,2.222775166,Be3F6,0.000518718,105.3551367,,-3.90897134,-51.8787778,520,1.50E-05
mp-15953,14,5.423257826,5.938718579,P8Rh4,0,184.3797638,,7.64170628,-80.444747,520,1.50E-07
mp-15954,14,-17.05415004,7.769297125,As8Rh4,0,216.080851,,5.90971896,-72.73509695,520,5.02E-05
mp-15955,131,8.562201771,4.275294385,Y2B4C4,0.145385277,104.5187827,,6.29199874,-79.50331755,520,1.51E-05
mp-15963,189,2.334830046,11.37087706,Hf3P3Ru3,0,136.045821,,8.55890938,-83.62478096,520,0.0002525
mp-15973,227,8.819701062,5.192124776,Cr4Hg2S8,0,276.8621334,,4.19282976,-80.01878669,520,0.00055115