material_id,spacegroup.number,delta_volume,density,full_formula,e_above_hull,structure.lattice.volume,band_gap.optimize_structure_gap,efermi,final_energy,encut,total_magnetization
mp-567713,156,26.52404261,5.727548764,Nb3Te1I7,0.001917512,375.3468841,,3.96585792,-50.05706681,520,8.00E-07
mp-567724,166,10.88331252,7.366044239,Ta1Se2,0.02645716,76.39152384,,3.40820741,-21.2033422,520,0.0001931
mp-567736,187,3.756320887,9.106193015,Ta1Pb1Se2,0,99.57696172,,5.12229196,-25.19201918,520,0.0025541
mp-567741,63,54.05521543,1.748779111,P2C4N6Cl8,0.056175971,453.5529842,,-1.02057947,-115.8111177,520,0.00010515
mp-567744,62,-14.21267038,3.755932702,Sr4Br8,0,437.5625296,,-0.71214794,-45.64224583,520,0.00016845
mp-567747,166,-1.402896636,9.868429411,Co7Mo6,0.014819076,166.2776032,,7.2534081,-115.1651457,520,2.0018033
mp-567750,194,17.16777467,8.26184614,Sc4Ru8,0,198.654103,,6.40605942,-104.1952156,520,3.21E-05
mp-567767,194,-3.826560731,4.101984084,Co2C2N4,0.212299851,80.1185223,,4.37065751,-63.09974965,520,0.0020157
mp-567772,220,213.6276874,1.035061535,Na8,0.01076109,295.058086,,0.48103417,-10.41464356,520,2.01E-05
mp-567787,225,-2.253842626,7.591069638,Li1In1Ag2,0,73.82678782,,4.43277167,-11.21996684,520,1.26E-05
mp-567809,129,14.67794927,5.548019229,Ag2I2,0.025172552,140.5363493,,1.46187426,-9.73569161,520,0.0001183
mp-567832,194,2.392255892,6.844416018,Ti2Te2,0.093940265,85.14088068,,8.51359684,-24.50641609,520,3.65E-06
mp-567836,12,4.498852451,1.7484623,K4Na2B2P4,0,330.3957838,,1.21936515,-46.79204657,520,3.00E-05
mp-567838,6,-2.31143471,7.880914825,La2Al1Ni9H1,0.038269412,175.7356478,,8.1994424,-73.52126278,520,0.0208166
mp-567885,187,9.42571902,2.179145869,C6N8,0.138629062,140.3002889,,3.13075537,-117.0318121,520,0.00069405
mp-567889,70,8.906120634,6.553900481,Ti2Ge4,0,97.87397135,,5.54280173,-36.74721131,520,3.00E-05
mp-567903,216,-1.407473796,5.394741778,Zn1Ni1,1.08407251,38.19958186,,1.50344149,-5.38129306,520,6.10E-06
mp-567913,15,24.94866182,5.509343914,Cs2Au2Se6,0,341.6428059,,1.35312324,-34.19591827,520,0.00028335
mp-567925,194,-4.093956526,8.456024876,Mo4C4,0.214279468,84.79461893,,9.39091572,-79.25464823,520,0.0003264
mp-567931,162,-8.044584089,5.226638042,In2Si2Te6,0,334.0392728,,4.52746269,-37.26349722,520,1.45E-06
mp-567933,194,-2.865397026,3.784464135,Fe2C2N4,0.20413189,84.13047532,,4.00066124,-66.79935056,520,8.12E-05
mp-567974,187,-28.27572954,2.913757516,Ca3Si1Br2,0.253991481,175.6006601,,4.07095012,-20.70737472,520,4.06E-05
mp-567981,225,-1.979457914,8.478268975,Cr1Ga1Co2,0.038456605,46.92479806,,5.84298815,-27.30009963,520,3.0273678
mp-568002,193,45.96720352,5.400571336,Hf2I6,0,343.8817991,,3.82300272,-36.1033126,520,7.18E-05
mp-568014,223,5.829182749,10.35619869,Nb6Bi2,0.104518686,156.3979507,,6.62997067,-68.12819255,520,0.00015185
mp-568024,14,139.5751137,3.063118955,I8Cl8,0.009207132,704.1213125,,-0.13239908,-29.24638747,520,1.38E-07
mp-568032,111,15.86341773,5.141093343,Cd1In2Se4,0.0043483,212.4931361,,1.90003731,-24.37805216,520,4.77E-05
mp-568040,65,-6.923375813,7.932919054,La2Al1Ni9,0,174.3726287,,8.26317158,-70.15559372,520,0.0126564
mp-568050,71,-15.4409406,2.869856322,Ca3Si1Br2,0.024455641,178.2868847,,,-22.08458976,520,3.07E-05
mp-568059,225,2.386096022,10.50197408,Lu1Bi1,0,60.70855271,,4.73810447,-9.85954132,520,0.0001768
mp-568075,216,7.547318487,7.45512235,Nb1Co1Sn1,0.867995717,60.26167116,,5.46435494,-19.5762095,520,0.0734056
mp-568077,194,4.048653937,12.41269919,Ta4Fe8,0,156.593378,,6.17756562,-117.5482379,520,0.001141825
mp-568116,155,1.626270572,4.634417803,Lu2C3N6,0.045271505,168.4060099,,0.43782991,-95.42129092,520,2.00E-07
mp-568128,194,32.93678106,4.354040783,Ga4Se4,0.417357019,226.8182026,,1.71702325,-27.47685429,520,0.00037085
mp-568146,2,36.09217054,4.431126642,Pd1Se6Br2,0.000429815,277.3062163,,1.00068172,-30.63983437,520,0.0001361
mp-568168,187,18.96355034,9.519578868,Rb1In6Au4,0,272.5082688,,5.84946884,-33.39192306,520,0.0023477
mp-568177,156,0.646392912,2.285908093,Ca1Al1Si1H1,0.004844474,69.84785403,,5.01759385,-16.13174327,520,0
mp-568186,194,5.913515233,8.939234166,Y4Ru8,0,216.2570025,,5.95654979,-103.8106759,520,4.30E-05
mp-568228,82,7.463653218,2.652568029,Rb1La1Si1C4N8,0,258.2644284,,0.78126176,-122.755397,520,3.71E-05
mp-568245,2,76.82693527,3.715039017,Nb2Br10,0.002299599,440.2070743,,,-47.0065655,520,0
mp-568252,12,41.23385982,3.961344199,Rb2Hg2Pd1Cl8,0,403.3235938,,-0.25484225,-35.878848,520,0.0002917
mp-568258,191,7.905830733,7.762427889,Fe4Ge2,0.335451652,78.86376933,,5.52677031,-41.71999125,520,0.0016018
mp-568263,186,51.28508242,4.469535146,Ga8Se8,0.000852372,441.9142806,,1.39432255,-61.61778292,520,1.59E-05
mp-568273,194,-17.27932364,4.081447426,Li2I2,0.036220212,108.9102003,,1.7950758,-11.65201297,520,0
mp-568284,62,25.98137324,4.24286949,Sr4I8,0,534.5024971,,1.16865021,-39.46278187,520,0.000180325
mp-568286,67,44.37267441,1.8843499,C16,0,169.3463512,,,-147.6075773,520,0
mp-568301,12,44.73671826,4.438965803,Bi2Br6,0.002055485,335.6958716,,-1.06516197,-23.75433261,520,1.30E-06
mp-568320,220,4.793088861,6.090617594,Y8Sb6,0.014695448,393.0925629,,5.90478547,-90.85703836,520,0.0419359
mp-568322,71,4.027992509,3.967803909,Sr3Li3Ni4N4,0,240.4232002,,3.35745911,-74.33338634,520,0.0021008
mp-568333,225,28.41093901,3.552157029,K2Sn1Br6,0.014178265,316.1665873,,-0.32384065,-26.65245262,520,0.0001356
mp-568346,59,6.962331026,6.767894658,Hf2Br2N2,0,133.6699283,,1.57573411,-50.10582023,520,0.0001151
mp-568347,20,27.85271646,4.158753726,Nb4Se8,0.008601067,400.6075124,,0.19282403,-78.3338791,520,0.112898575
mp-568349,12,-4.174795253,6.38611898,Cr1Fe2Se4,0.08798329,124.687907,,,-42.55046715,520,7.4514252
mp-568370,71,0.274034918,6.228601956,La3Si4Ni4,0.000435513,203.6368484,,8.34851271,-67.89674492,520,0.001452
mp-568373,162,-90.07780544,3.317864656,Cd2Ru1C6N6,0.10267458,241.231612,,-0.50065221,-113.3800658,520,1.13E-05
mp-568382,194,-4.380675675,9.440576075,Mn2Bi2,0.214327888,92.84324978,,5.82765454,-25.25767684,520,3.52884295
mp-568384,227,-29.07311965,3.847196554,Sc2B4,0.908212402,57.47313429,,7.06790726,-38.97223119,520,5.70E-05
mp-568390,166,2.27150468,7.806534976,Bi2Te3,0.477483906,170.3309566,,5.80210573,-17.15200323,520,7.20E-06
mp-568398,216,4.436358415,8.731270386,Ca1Bi1Au1,0,84.82635872,,4.66054453,-11.34516602,520,8.89E-05
mp-568400,186,0.998028293,3.268639086,Sc2Al6C6,0.000426851,164.5305237,,7.44332717,-95.35646267,520,1.19E-05
mp-568404,12,-6.45938145,1.30743387,Li9Al4,0,216.4146215,,2.21317672,-34.19958424,520,0.0008947
mp-568410,65,-1.542997935,2.743280191,C8,0.506377853,58.1617184,,7.0847245,-69.75276583,520,7.60E-06
mp-568422,15,13.28765522,2.704146419,Na2Ag2C4N4,0.219356094,224.6184462,,-1.42235427,-77.98802239,520,0.0001654
mp-568424,62,5.696835314,6.721813801,Ca4Al4Au4,0,260.8972353,,4.90949078,-44.49524148,520,1.00E-06
mp-568428,148,0.147159766,1.156900134,K1Na1B2H8,0.008266786,131.7258278,,-3.05152135,-47.10573405,520,2.35E-05
mp-568439,146,0.07218801,1.142009837,K1Na1B2H8,0.010846202,133.4433583,,-3.16190664,-47.07478106,520,7.00E-07
mp-568448,225,-154.5567419,4.571353284,Cs2Ag1Au1Cl6,0.050362092,284.5559904,,0.99374946,-29.28935555,520,7.99E-05
mp-568466,216,-0.744227786,5.118050453,Li1In1Sn1,0.06806199,78.01958306,,5.49903442,-9.11929775,520,3.24E-05
mp-568470,216,10.90943598,6.596001862,Zr1Ni1Sn1,0.889098797,67.62676759,,5.14598883,-17.72053321,520,3.20E-06
mp-568503,191,26.74176656,6.561117382,Fe4C2,1.152558024,62.61428646,,5.46941162,-45.3749225,520,0.003387
mp-568505,215,-0.255815497,5.696590082,As4C3,0.872999602,97.86094272,,6.66169622,-40.19770575,520,1.50E-06
mp-568516,225,-4.603992493,3.26274024,K3Bi1,0.023557545,166.0545534,,1.02484354,-8.59723203,520,0.0002155
mp-568517,140,-43.05997274,6.752280453,Tl2In2Se4,0.333430081,234.6699166,,4.18107244,-25.71320756,520,1.02E-05
mp-568536,189,17.46349241,4.972152619,Ba3I6,0.005713471,391.8804679,,1.82159636,-31.03134891,520,5.67E-05
mp-568539,189,-482.7746476,8.372421377,La3In3Rh3,0,212.1953617,,8.1559076,-52.01049883,520,0.000815833
mp-568552,216,0.363868625,10.27322093,Lu1Ni4Sn1,0.000536493,85.41750028,,7.89839558,-34.12278056,520,0.0009617
mp-568560,225,6.275832607,6.055753044,Tl1Br1,0,77.95399792,,0.97446138,-5.76707896,520,0.0001034
mp-568565,194,-1.53412488,6.508013309,Cr2As2,0.013904151,64.7668607,,6.15478056,-29.30617014,520,2.46956655
mp-568574,164,12.70292393,5.62531815,La2Ge2I2,0,199.8142411,,5.60336751,-29.00336811,520,3.48E-05
mp-568584,167,124.2307489,1.126305905,N16,8.88E-16,330.4064668,,-5.97706131,-132.8166759,520,2.62E-05
mp-568587,160,-10.07347419,5.859432515,Cr1Cu1Se2,0.058345234,77.49803276,,4.44569042,-22.1605987,520,2.9997358
mp-568598,111,16.96247552,5.690422311,Cu2Hg1I4,0.00610009,243.7513395,,2.67332681,-16.1939563,520,0.0006398
mp-568607,182,0.821666179,4.122876055,Al10Mo2,0.001530648,185.9534953,,8.43399475,-62.06011868,520,6.79E-05
mp-568610,229,4.269612191,10.94506686,Bi1,0.152541545,31.70561837,,6.50518273,-3.74570339,520,0.0002418
mp-568619,156,6.535189578,3.173931971,Si5C5,0.00106336,104.8877324,,8.06734845,-75.29307661,520,1.74E-05
mp-568625,71,4.790265426,6.979215588,La3Si4Pd4,0,227.1573908,,,-67.6734941,520,0.000486
mp-568630,194,4.343859591,11.98616964,Lu4Ru8,0,208.9744813,,5.80023176,-97.08847823,520,0.000136725
mp-568631,189,-7.234529982,8.800771442,Lu3Mn3Ga2Si1,0.073447573,161.7462189,,4.07296599,-55.99701625,520,4.14E-05
mp-568643,70,10.15128504,2.448464539,Rb2C16,0,246.2576066,,2.22169369,-150.172412,520,0.00020815
mp-568662,225,-7.869386346,3.394162159,Ba1Cl2,0,101.8746335,,-0.65958921,-13.29277949,520,0
mp-568664,186,6.594261162,7.249578297,Ca2Ag2Bi2,0,163.5103531,,4.80491009,-20.81220118,520,1.38E-05
mp-568666,12,29.11937315,5.03316226,Rb2Au2I6,0,437.5709423,,0.8461811,-24.45852924,520,0.00015695
mp-568690,166,13.78630218,4.581178876,Cd1Br2,0.000974413,98.67116941,,-1.14126055,-6.84086071,520,8.94E-05
mp-568695,189,7.95101608,5.529340401,Ca3Cd3Sn3,0,244.3346735,,4.59862791,-25.3350366,520,1.48E-05
mp-568705,221,0.340534985,16.04500089,Yb1Ir1,0.21620289,37.80140072,,4.09399934,-10.99466472,520,8.00E-07
mp-568711,221,2.495795031,10.32103704,V1Pd3,0.018416945,59.56126703,,5.40690148,-25.54878259,520,1.2713111
mp-568745,62,91.09532613,3.714595443,Rb8Te4,0.056250922,533.8185826,,1.13346134,-31.70761626,520,5.83E-05
mp-568746,12,7.252316712,11.09693213,Bi4Pd2,0,156.9361298,,6.16505057,-27.35657673,520,1.30E-06
mp-568748,123,-30.70755041,6.64647536,Fe2B1,0.384738118,30.60534824,,5.55354166,-23.38675413,520,4.0831572
mp-568769,227,-60.29475185,8.588568462,La2Co4,0.029011795,99.29005044,,8.43318376,-38.58544574,520,1.09800065
mp-568789,194,0.607657289,6.082366945,Ti2Se2,0.039328025,69.24974659,,7.23777231,-27.13006299,520,0.000117
mp-568791,8,-2.087209235,2.412242031,Ca3Si1Br2,0.182811091,212.1087919,,2.95246431,-21.13445706,520,0.0011277
mp-568800,216,8.87946227,6.997464756,Cd1Cu1Sb1,0.207494706,70.64997376,,4.899824,-8.61034896,520,3.90E-06
mp-568806,191,24.55942207,1.975241081,C8,0.006174732,80.77691958,,3.61561033,-73.75439079,520,3.75E-08
mp-568809,187,9.082307415,4.695459615,Ba5Al5Pb1,0,363.8126071,,3.73739038,-35.70714582,520,0.0066025
mp-568844,225,4.709125484,8.181719923,Bi1Se1,0.170066726,58.43957993,,5.33842886,-7.68821554,520,0.0007923
mp-568862,14,4.134378836,12.95921867,Os4N8,0.272614703,111.8591159,,7.50114743,-105.227532,520,9.15E-06
mp-568865,62,5.074703522,7.315701347,Zr4Te4,0.024372309,198.6772164,,7.22996246,-53.76335537,520,2.25E-07
mp-568866,12,5.327296924,2.81837783,Na6Zn1Sn2,0,259.6925883,,2.34137273,-18.67557432,520,6.00E-06
mp-568880,225,-1.363180899,8.770745811,Y1In1Pd2,0,78.8667863,,5.92479365,-22.8388875,520,1.62E-05
mp-568889,17,-37.05735888,7.323513207,Ag8Se4,0.126085519,267.2787572,,2.40566301,-35.93126163,520,3.75E-07
mp-568890,121,18.11838897,6.873238956,Tl2Cd1Ge1Te4,0.005529729,266.7732703,,4.0022019,-24.97908054,520,6.40E-06
mp-568891,216,-0.709663653,8.066800759,Mn1Sb1Rh1,0.335834761,57.5559774,,6.63192585,-20.63493917,520,3.4194749
mp-568895,194,11.16204155,7.858638344,Ba2Sb2Au2,0,192.7292547,,4.61592277,-24.20523836,520,2.23E-05
mp-568901,194,-3.508539653,8.685126902,Nb4Fe8,0.002269971,156.4699193,,5.6770285,-109.6596753,520,2.3281169
mp-568908,194,0.727577395,5.742076448,Ti2As2,0.236134079,71.0179552,,6.56444824,-27.84912176,520,0.00013505
mp-568914,225,9.782652738,3.13418045,K2W1Cl6,0,251.5325969,,1.58978947,-38.40412613,520,2.0011636
mp-568917,225,4.154325783,8.140217654,La1In1Ag2,0,95.76604397,,6.27054658,-14.82864158,520,0.0004588
mp-568920,216,6.600615295,13.85502507,Ca1Au5,0,122.8366215,,4.58729387,-20.86619154,520,0.0006389
mp-568925,166,5.854593748,9.176121722,Ni2Sn4Au1,0,142.8148448,,8.08946705,-32.37072397,520,0.0005185
mp-568927,11,18.64363389,6.689685439,Ag2I2,0.10365798,116.5523215,,2.99261693,-9.4217499,520,9.98E-05
mp-568932,162,7.469229389,3.961615175,Cd2Os1C6N6,0.077885853,239.4042476,,-0.38611548,-115.6953269,520,0.0100762
mp-568936,19,22.85669722,7.976496814,Ag8Se4,0,245.3983941,,2.93211205,-37.44428786,520,8.13E-06
mp-568959,220,8.944717421,6.614356114,La8As6,0.014196216,391.8333172,,7.87362807,-86.06678589,520,0.0002063
mp-568967,187,14.00496041,5.444266764,Ba5Ga5Sn1,0,351.965786,,3.16626399,-34.17901891,520,0.0057144
mp-568968,121,16.01522735,4.890521933,K2Sn1Hg1Se4,0,242.2079461,,1.333083,-26.26705115,520,3.51E-05
mp-568971,62,38.58814256,7.08789331,Ag8Se4,0.005635232,276.1637941,,1.87205478,-37.37666507,520,0.0005771
mp-568974,12,2.304284938,6.189564306,Ca1Cu2Sn2,0,108.5435835,,6.35824159,-19.79961151,520,2.76E-05
mp-568983,216,-3.351836791,8.47245394,Mn1Sb1Rh1,0.325546121,54.80025096,,6.99351586,-20.66580509,520,3.2358296
mp-568987,11,-1.318197655,1.140490073,Na4Be2H8,0,171.874874,,-1.96136191,-43.05148344,520,8.50E-06
mp-568998,194,-39.73745636,6.072823577,Cu6Se6,0.215672986,233.7990954,,4.07764307,-44.47771141,520,0.000115617
mp-569006,139,3.065685404,7.253862377,Sr1As2Rh2,0,101.473405,,5.60316091,-29.69103494,520,3.46E-05
mp-569007,166,15.40339026,6.048592445,Ga22,0.019178102,421.1080214,,3.37444261,-66.39721743,520,8.64E-08
mp-569017,58,45.6746834,4.803634425,Pd2I4,0.016237895,249.0506834,,1.26041249,-17.84225996,520,8.48E-05
mp-569018,164,4.30176311,5.666621859,Mg3Bi2,0,143.8455662,,4.09281959,-13.5831204,520,3.80E-06
mp-569020,59,19.56318885,6.93533839,In2Sb2,0.1368421,113.2884894,,7.08888296,-13.66630004,520,4.95E-06
mp-569028,225,37.05306261,3.833608117,Rb2Sn1Br6,0,333.1248412,,-0.52503918,-26.7227111,520,0.0004103
mp-569037,194,1.92052898,4.311293715,Y6H4,0.014012582,207.0108795,,3.03152806,-56.40785286,520,0.0062028
mp-569044,164,24.11128676,7.499268156,Bi2Te5Pb2,0.186201183,325.5773044,,,-33.19839863,520,0
mp-569051,29,17.42274477,1.611009811,Mg4H8,0.04054099,108.520379,,2.04069145,-35.1582354,520,1.58E-06
mp-569055,115,-33.60177211,3.723222542,Cs1Li2I3,0.017351443,235.2628039,,,-17.20412822,520,0
mp-569066,225,43.20620499,4.62522351,Cs2Pd1I6,0.005466334,407.0036625,,1.32310647,-23.21782581,520,0
mp-569073,10,2.299730075,4.987740256,Li3Sn3,0,125.4967461,,5.4384624,-19.71487615,520,7.62E-05
mp-569095,194,20.18772573,3.600675468,Rb6Bi2,0,429.2461097,,0.79427053,-16.2298805,520,9.75E-06
mp-569125,221,0.420087537,3.427992315,Mg3In1,0,90.93893654,,4.89008509,-7.88205098,520,0.0006613
mp-569151,194,0.527686429,11.67155705,Mn2Ga2Pt2,0,90.98171358,,5.43532718,-39.23696433,520,0.02796145
mp-569157,162,84.23326322,4.658916151,Bi2I6,0.000613949,420.3593975,,0.3251846,-20.77007629,520,0
mp-569170,194,82.22429461,4.206460103,Ca4Te4,0.034305535,264.7697668,,3.60537908,-33.5090204,520,6.83E-05
mp-569196,166,-1.21993988,7.600998232,Y3Ni9,0,173.6691686,,6.24745922,-76.21672405,520,0.2939176
mp-569228,225,3.202273091,15.78455279,W1N1,0.545538221,20.81352406,,9.90272007,-20.61472963,520,0.0004998
mp-569246,121,19.55861719,7.432760819,Tl2Hg1Ge1Te4,0.00859705,266.3910697,,4.06956187,-23.75564944,520,1.17E-05
mp-569249,223,2.150455762,17.0165299,Ta6Au2,0,144.3871038,,6.04787259,-77.89713112,520,0.00311615
mp-569250,65,0.891889378,14.52758716,V2Ir2,0,55.58723246,,8.10643649,-37.97176888,520,1.49E-05
mp-569265,194,3.66569134,5.755376448,Mg6Pt2,0.020819723,154.6459406,,4.4400649,-26.3121465,520,1.76E-05
mp-569270,71,0.370248554,5.426882964,V3B4,0,59.99381246,,,-59.69070028,520,3.00E-07
mp-569278,189,21.92787696,8.143270413,Si3Pd6,0.476600648,147.3853298,,,-49.26658269,520,3.30E-06
mp-569287,12,25.92332716,6.621400789,Tl2P2Au2Se6,0.002632444,335.6506547,,2.65311772,-45.50250678,520,0.00041435
mp-569317,12,3.822947835,4.170342254,Cr3In1O8,0.106519071,158.7940317,,2.8468243,-81.88550703,520,5.0007104
mp-569321,162,-0.080013221,2.80873724,Mn2Ru1C6N6,0.142466306,217.0020248,,0.9810819,-130.4566865,520,9.9996565
mp-569322,62,-4.305562664,9.924329145,Te8Ir4,0.014698142,299.4473016,,7.60064597,-63.91456374,520,4.20E-06
mp-569333,216,4.215242368,6.811711179,Li2Ag1Bi1,0.003563959,80.62453891,,3.96768144,-11.956193,520,1.00E-07
mp-569346,186,-3.998431811,5.746819131,Cu2I2,0.008815107,110.0610384,,4.51002899,-11.82622268,520,5.03E-05
mp-569358,51,-13.31845848,6.133021775,Bi2,0.555676445,113.1644809,,1.54858404,-6.68513698,520,2.20E-05
mp-569360,12,39.33550705,10.60712989,Hg3,0.00211265,94.20668814,,0.49180862,-0.9047334,520,1.47E-06
mp-569376,191,0.362633403,5.89620579,Fe1B2,0.248690679,21.81690775,,8.38151108,-21.9667414,520,0.0024452
mp-569396,166,1.960934448,3.534730621,Ba1Li2Mg2Ge2,0,162.119953,,2.48363093,-21.19438888,520,7.00E-07
mp-569402,194,1.682001569,4.849041753,V2P2,0.391271108,56.10324574,,8.07938371,-30.68481897,520,5.88E-05
mp-569404,15,-24.89284493,7.459942963,Ni8B6,0.001729155,118.9572074,,,-90.20054126,520,8.50E-07
mp-569423,220,7.484155213,6.155134744,Ga6,0.020515487,112.859687,,3.46915822,-18.10030772,520,1.17E-06
mp-569446,194,-1.211977179,11.38837158,Ni2Pb2,0.087169355,77.53986038,,7.78054981,-18.64359116,520,8.00E-07
mp-569482,191,2.414008759,8.142183377,La1Si2Ru3,0.085799477,101.621899,,8.51705616,-47.55522193,520,0.0079793
mp-569501,62,-135.1976386,5.328026576,Li4Ca4Bi4,0,319.1402984,,3.79879771,-40.83085751,520,1.05E-05
mp-569511,62,6.914082229,9.532298983,Ni4Te4Pd4,0.010101763,203.9642395,,8.16259896,-59.46487851,520,8.25E-07
mp-569516,216,8.051052336,10.60700002,Hf1Ni5,0.01585625,73.88545509,,7.09808865,-40.91256354,520,0.0946822
mp-569517,166,0.349356193,3.494689824,C10,0.145185794,57.07011853,,9.81465417,-90.80287787,520,8.48E-06
mp-569525,6,-7.839615269,1.393051554,Na1Li5N2,0.075316594,102.165466,,0.45405838,-29.39882596,520,0.0002617
mp-569526,194,-1.22059801,3.287964118,Rb2Cu2Cl6,0.036349654,257.9447274,,0.80967856,-31.87937349,520,0.0104192
mp-569544,194,5.682076565,7.517707698,Zr2Te2,0.05819589,96.66930652,,7.58454426,-26.74638336,520,9.55E-06
mp-569548,139,28.2941673,5.130669452,Cs2Au2Br6,0,368.6912642,,0.01640599,-27.14917335,520,0.00015365
mp-569558,62,14.01125603,13.66778274,Al4Au8,0,204.5526378,,6.7557703,-45.009559,520,4.05E-06
mp-569567,166,0.597640288,3.489951101,C14,0.174405898,80.00665321,,9.74144573,-126.7149476,520,9.88E-06
mp-569568,194,1.149948419,12.25103086,Ta6Al2C4,0,160.9832574,,7.45830976,-122.3802503,520,0.00030095
mp-569578,2,85.16829376,4.469477771,Nb2I10,0,540.5212273,,,-40.59933596,520,0
mp-569581,164,21.84157679,12.11338303,Bi6Pt3,0.029749805,252.1140844,,5.69397973,-43.41429348,520,2.53E-06
mp-569600,215,0,5.128871875,Ge3As4,0.049782029,167.5818105,,3.14883933,-32.46339531,520,0.0003687
mp-569610,164,-1.339387128,5.798238715,Co1I2,0.025231263,89.56521974,,4.09118411,-10.07241903,520,2.5629086
mp-569617,164,2.354159643,4.004727831,Ca3Zn2Cu2P4,0,208.1678141,,5.4372091,-47.08396861,520,3.70E-06
mp-569623,12,30.91076911,4.757144753,Nb2Se4Br4,0.003287852,286.6738157,,2.01542364,-48.29534017,520,1.41E-05
mp-569624,194,-71.71993772,10.54088294,Hf4Cr8,0.015584379,178.0013017,,5.62671611,-118.1010487,520,2.82E-05
mp-569628,62,14.66365201,7.918021314,Ca4Cd4Au4,0,293.1462758,,3.33353482,-32.31660223,520,1.08E-06
mp-569639,225,6.557607854,5.716620014,Tl1Cl1,0,69.6666104,,1.18964169,-6.24556289,520,7.20E-06