material_id,spacegroup.number,delta_volume,density,full_formula,e_above_hull,structure.lattice.volume,band_gap.optimize_structure_gap,efermi,final_energy,encut,total_magnetization
mp-743541,33,2.102069426,2.155403849,Mn4P4H20C4O16,0.031888758,514.5082722,,0.64030868,-292.5686586,520,5.0006918
mp-743582,161,3.358555939,3.211788595,Ti2Mn2Cr2P6O24,0,454.6776887,,1.62019001,-280.7978456,520,7.9989095
mp-743660,63,1.91602602,4.054984697,Fe2H2O4,0.040736648,72.77057453,,2.06791654,-48.14351967,520,4.99969215
mp-743839,194,9.108875658,4.29799044,Co2H2O4,0.124603821,71.04243414,,1.97840148,-43.90116823,520,1.9940199
mp-744941,1,9.464198277,3.089477024,Na9Cr6P6O24F9,0,677.0654807,,3.53929053,-352.8848236,520,5.999862367
mp-745173,1,15.30673592,2.698255883,Na3Cd4P6H10Cl3O24,0.471187053,741.4975324,,0.00708123,-259.6570599,520,0.0089436
mp-752398,123,0.033994795,6.156722828,Ba1Cu1O2,0.070364304,62.80820592,,2.89962637,-22.21254176,520,0.0004506
mp-752413,55,0.013110627,5.726517815,Ca4Hf2O8,0.003983532,187.1162585,,2.36777209,-113.4015015,520,0.00023255
mp-752415,38,-0.36137171,3.744802008,Nb2O4F2,0.061295526,127.6209089,,-0.77401576,-64.99878967,520,0.0001963
mp-752446,155,5.453669606,2.414395845,Rb1N1O3,0.003454774,101.4266887,,-1.50316783,-29.068957,520,9.30E-05
mp-752467,9,-0.081385376,3.98536531,Nb2O4F2,0,119.9174978,,-0.90418342,-65.48915388,520,0.00012595
mp-752474,71,4.331562999,3.873640085,Nb1O1F2,0.169867019,62.97370805,,1.29246478,-29.21017557,520,0.9999501
mp-752483,82,2.14875816,4.720903637,Li1Bi1F5,0.064282971,109.3612378,,-1.19526957,-31.32647183,520,0.0004939
mp-752537,55,0.128757931,6.548533514,Sr4Hf2O8,0.046442527,211.8498703,,1.86747187,-110.5469047,520,0.00061375
mp-752539,14,-1.502330055,4.779089753,Cs4Ba4O6,0.081706054,408.9339217,,1.63994774,-65.3957038,520,0.00026875
mp-752546,166,0.234470451,3.611892058,Li1Ti4O8,0.09973755,150.0617705,,4.02778115,-110.0050156,520,8.76E-05
mp-752549,12,0.496890685,5.189042322,Li1Ag1F2,0.006003815,48.89926184,,-0.36894224,-16.31423299,520,4.13E-05
mp-752561,9,0.408358793,5.480208856,Sb2O4F2,0.008792512,104.6931195,,2.76965107,-44.07779189,520,8.35E-05
mp-752580,152,0.850709909,2.9561593,Rb3N3O6,0,221.5542451,,-0.14583356,-68.52012777,520,0.000321667
mp-752602,14,2.406620202,4.420557267,Bi4Br12,0,674.1876214,,-1.1230946,-47.54155298,520,0.00052125
mp-752643,227,0.914749559,3.66312509,Na2Ti4O8,0.008830267,165.6596265,,4.9828732,-112.1349213,520,0.00708715
mp-752645,74,0.148198995,4.474613501,Al4Cu2O8,0.101288603,134.7150646,,6.65058536,-93.87355756,520,1.0003748
mp-752648,14,0.080628586,4.48647681,Ba6Br4O4,0.035231258,446.9490232,,1.10435321,-71.49067012,520,0.0005687
mp-752658,164,-0.248211048,5.426658018,Y2Se1O2,0,88.36279847,,3.61202195,-41.77413442,520,4.76E-05
mp-752666,70,2.215958544,4.863310366,Li2Ag4F8,0.013145662,203.9577323,,-1.05935095,-52.56751933,520,0.8046345
mp-752670,12,-3.669091898,2.319306533,Li6Fe2S6,0.163620426,247.5272294,,2.20618961,-65.4457895,520,3.9998704
mp-752675,15,-0.147320695,4.859237656,Ba2Y2F10,0.000174272,219.5432569,,-1.34768484,-92.07043797,520,0.00014055
mp-752689,14,2.395663303,4.41141991,Ba4Na4O6,0.08694846,277.5194408,,1.1596249,-68.53451668,520,0.00077125
mp-752699,65,-17.02063515,4.337326384,Li2Ag2F6,0.04681976,131.5501321,,-1.09643375,-38.98743086,520,0.00142025
mp-752734,11,5.311670383,4.938717671,Li2Ag4F8,0.034009581,200.8435833,,-0.95636608,-52.27542447,520,0.99876365
mp-752742,11,4.394782362,4.451831679,Li2Cu4F8,0.058472936,156.6804027,,2.19581752,-59.81703773,520,1.00030805
mp-752753,15,0.464092952,5.434888512,Sb2O4F2,0.018348046,105.5661325,,2.9635607,-44.00134762,520,5.47E-05
mp-752767,5,0.076874172,4.990605209,Li1Ag1F2,0,50.84360083,,-0.50777031,-16.33824825,520,0.0001763
mp-752843,65,0.7574926,3.343488569,Li2Cu1F4,0.058643948,76.19663487,,0.45300686,-31.35532546,520,1.0000838
mp-752881,12,0.489827993,2.80269568,Li2Cu1S2,0.085619594,83.87017794,,3.11969595,-20.15802793,520,0.0017225
mp-752891,70,0.062195688,3.778971917,Li2Ti6O12,0.038394795,216.6656154,,4.25022787,-167.9951194,520,0.0003874
mp-752910,65,2.584526936,5.238093547,Na3Bi1O4,0.036622809,108.4014344,,2.08211545,-38.40916615,520,8.27E-05
mp-752922,148,0.814652402,4.016766949,Li8Hf1O6,0.002759914,136.428576,,0.58124076,-88.46976881,520,8.43E-05
mp-752924,166,1.177350533,6.848180121,Na1Yb1O2,0.092981792,55.29211189,,0.08503766,-20.85824726,520,1.0011188
mp-752926,5,0.02453861,3.091677045,Li1Ti1P2O7,0.077015761,122.8622843,,5.42384141,-81.68085991,520,0.9999758
mp-752927,194,0.92257012,5.448847186,Li2Ag2F4,0.015003054,93.13542132,,-0.46498638,-32.55647207,520,0.00035295
mp-752928,11,1.528732093,3.601257052,Li2Co2S4,0.081864938,119.8898263,,4.51931345,-39.92815624,520,0.00122315
mp-752930,21,0.239742473,2.81600409,Li1Cu1P2O6,0.079744451,134.7009646,,3.00115624,-65.13502634,520,0.0005213
mp-752942,11,1.806602593,3.385701129,Li2Ti4O8,0.089753116,163.4913117,,4.2472808,-113.6662794,520,0.9998283
mp-752943,2,1.485292459,3.103423092,Li4Cu1P2O8,0.068984974,150.4890292,,2.63178357,-93.24447012,520,0.9995271
mp-752947,164,0.082321876,3.01342241,Na1Ti1S2,0.007324152,74.38412866,,5.22347218,-22.84549337,520,0.6595918
mp-753059,59,-0.014742655,3.431372861,Ti2O2F2,0.071318397,80.2012759,,3.261727,-47.5810844,520,0.00457025
mp-753123,64,1.214850609,3.491213525,Li4Cu2F8,0.021077154,145.9449992,,0.69049369,-63.23658604,520,0.99992065
mp-753131,12,1.642729316,3.984238961,Li3Ti4O8,0.058493575,141.8234512,,5.56166057,-117.06409,520,0.0001674
mp-753139,225,1.692127781,2.991159359,Li6Cu1F8,0.03512941,142.7727824,,0.58070643,-70.00002467,520,0.9999574
mp-753160,62,-0.007319428,9.071389985,Bi4O4F4,0.034568127,178.6431107,,4.20828019,-64.70419127,520,2.50E-07
mp-753162,65,5.52984011,5.883754916,Li2Bi1O3,0.017815288,76.44346292,,3.20328343,-31.59368779,520,0.0001134
mp-753171,7,3.608623115,3.324928962,Li4Cu2F8,0.017085584,153.2439222,,0.06913962,-63.29246802,520,0.999998
mp-753176,167,0.297255692,4.661306129,Ag2C2O6,0.002045668,119.6087409,,0.92804627,-62.02903965,520,0.00043835
mp-753181,59,17.85717974,5.168057529,Sr2Cu4O6,0.029849296,168.8218604,,3.28182065,-65.3383139,520,0.0013116
mp-753202,166,2.220380821,2.857116763,Li5Cu1F8,0.00079379,145.4369483,,-1.99675453,-63.88317333,520,1.999988
mp-753209,10,0.883456186,4.222813497,Li1Ag1F4,0.063715047,75.02948444,,-1.680967,-22.05520552,520,0.6888412
mp-753211,156,-1.51070611,3.881200953,Fe1Cu1S2,0.161432649,78.51790949,,3.40307731,-21.68744507,520,3.7864482
mp-753216,64,0.6427666,4.858909617,Li2Ag4F8,0.024963355,204.1424583,,-0.9240423,-52.40207163,520,0.0015754
mp-753268,12,3.01051694,2.888249315,Li6Cu1F8,0.055097178,147.8598617,,-0.51256229,-69.70050815,520,0.9999401
mp-753277,31,0.707615742,4.63344087,Li2Ag2F4,0.025991916,109.5256619,,-0.83061479,-32.46856117,520,0.00018585
mp-753287,123,0,5.517151077,Ca1Cd1O2,0,55.52670029,,2.22764665,-20.86322789,520,3.70E-06
mp-753304,225,1.856129216,10.2186179,Hg1,0.01239586,32.59614258,,0.08923463,-0.29129459,520,0.0001749
mp-753315,65,0.860122565,4.290882977,Mg3Zn1O4,0.032871653,78.29691866,,3.67406326,-44.74175474,520,2.92E-05
mp-753326,150,0.649398275,4.469674897,Li1Ag2F6,0.049462668,125.0762237,,-1.57613205,-32.02986284,520,0.0034124
mp-753342,36,2.20732198,3.377274779,Li2Cu2F8,0.067841873,144.0432254,,-1.36664488,-49.23723519,520,0.00538735
mp-753349,63,0.31069378,3.427913844,Li2Ti2Si2O8,0.06914287,142.3130319,,6.21081613,-107.2995337,520,0.28279165
mp-753360,62,0.678267119,8.777058056,Bi4O4F4,0.052500831,184.6337708,,3.6524053,-64.48899883,520,5.97E-05
mp-753378,30,-0.516528545,7.905905465,Ta2Ga2O8,0.031858406,132.1845545,,2.57113718,-98.15809336,520,1.77E-05
mp-753387,2,-0.181903157,3.759814994,Li2Cu3F8,0.04947748,157.4530042,,0.3905738,-55.89315932,520,2.999947
mp-753425,67,0.746920461,2.970981536,Li2Cu2C2O6,0.047084056,145.8733647,,2.04526822,-76.15927395,520,8.97E-05
mp-753459,65,-1.311535715,4.883745311,Nb3O7F1,0.052349291,139.308043,,1.23138692,-95.18583469,520,0.0009361
mp-753478,14,-0.087366124,8.073413197,Bi4O4F4,0.02951513,200.7256765,,3.11083853,-64.76482724,520,1.33E-05
mp-753495,65,0.841535601,6.02228101,Sb3O7F1,0.039255669,136.8389631,,4.57022087,-63.42315043,520,0.0001133
mp-753497,15,0.692986941,2.413897594,Li6Ti2S6,0.08380356,226.851363,,4.44147942,-70.30727456,520,0.31355345
mp-753506,123,-0.222875959,5.324329591,Li1Bi1S2,0.070303273,87.34175353,,3.96330218,-16.73345629,520,2.16E-05
mp-753508,62,-1.880715062,3.475017733,Li4Cu4S4,0.055022138,196.0181072,,4.12933647,-48.81214749,520,0.000346075
mp-753519,62,5.658864939,3.247444203,Cu4P4O16,0,324.2232989,,0.40911656,-151.1600524,520,0.000204325
mp-753524,1,5.731157774,7.438795537,La2Bi7O14,0.086388112,438.5660933,,3.65099329,-143.3883341,520,0.0983026
mp-753539,33,2.72349545,4.297618492,Sb4O4F4,0.071490222,242.2759978,,1.30111818,-64.88986229,520,0.002533825
mp-753575,10,3.229776126,3.788666928,Ba1Ca1I4,0.029057677,300.2394396,,0.37647458,-20.1641808,520,0.0004991
mp-753594,129,0,8.659973378,Bi2O2F2,0.010915215,93.56502927,,3.66745731,-32.49401311,520,2.62E-05
mp-753605,62,0.032043416,3.223871444,Li4Cu4S4,0.024718877,211.2883253,,2.77193756,-49.17578662,520,0.0004915
mp-753614,5,0.440871718,2.455150418,Fe1P2S6,0.122049126,209.7917044,,2.63470541,-45.51869005,520,1.996123
mp-753619,123,0,5.325796764,Ba1Sr1O2,0.05358445,80.11355878,,1.90606665,-23.71741367,520,0.0001756
mp-753654,82,0.823491172,3.437854832,Li1Sn1P1O4,0.090492164,106.5641405,,2.05201076,-45.02498674,520,9.95E-05
mp-753656,62,0.268735975,5.378810065,Sb4O4F4,0.097334485,193.5762363,,3.46113346,-64.57973113,520,0.000120575
mp-753657,123,0.593245049,4.171737835,Ti1O1F1,0.000795473,32.9839137,,5.39079119,-24.00211097,520,0.0012883
mp-753661,14,1.026660726,5.13719765,Sb4O4F4,0.056770383,202.6805039,,3.30705837,-65.06650036,520,0.000270525
mp-753662,14,2.171904524,2.654544736,K4Mg4O6,0.007649753,218.6967813,,1.05373207,-68.31073935,520,4.40E-06
mp-753663,15,0.878226204,3.421736597,Ba2Y2Br10,0.056685114,607.3448423,,-1.48137304,-61.01629352,520,0.0008691
mp-753669,191,1.733155778,8.946758402,Hf1Mn6Sn6,0,226.5050278,,8.56748288,-89.80686709,520,13.11084
mp-753670,12,5.189892691,4.457664722,Ca1Pb1I4,0.000108319,281.2086951,,1.13577145,-18.74473048,520,0.0002714
mp-753671,24,-15.68280052,2.630747189,P4N4O4,0,153.9630139,,2.62195033,-88.3465598,520,6.63E-06
mp-753677,161,1.087669273,3.827713197,Li6Bi2S6,0.049938991,282.8493371,,2.12323509,-57.25548514,520,0.00047795
mp-753691,12,0.131466988,5.755236324,Y2Bi2O7,0.077820193,204.2100145,,2.30085859,-78.28106441,520,7.07E-05
mp-753709,15,1.407762093,4.436888211,Ba2Ca2I8,0.068975599,512.7500092,,1.80162421,-39.84934654,520,0.0002621
mp-753712,129,0.547262737,5.137029857,Y2I2O2,0,149.864455,,2.73507982,-42.12259678,520,0.0001055
mp-753720,148,0.955999782,3.744100854,Li6Bi2S6,0.025620939,289.1658592,,2.07912496,-57.59593787,520,0.00055075
mp-753722,12,0.448001144,3.14574954,Li1Cu1S2,0.073944709,71.0599433,,3.06611435,-16.32701926,520,0.0001356
mp-753747,65,-0.884594277,8.184017927,Ta3O7F1,0,136.7218468,,1.62340451,-103.9841761,520,0.0005638
mp-753798,36,-1.923258342,4.61765637,Rb4Sn2O6,0,242.8377803,,1.47651588,-60.57607363,520,0.00053005
mp-753801,14,4.51412067,4.471665912,Cs4Sr4O6,0.06726481,363.213686,,1.40718712,-66.70772686,520,0.0003783
mp-753802,12,-0.186604892,3.338163521,Sc2Ti2O7,0,148.059115,,0.97147834,-99.27616114,520,0.0001048
mp-753809,13,1.164406438,4.150321546,Ba2Ca2I8,0.027401499,548.1537866,,1.11860349,-40.34823574,520,9.82E-05
mp-753815,227,0.36195099,4.121246862,Ca2Y4O8,0.039685311,227.1569174,,1.0804229,-116.3338318,520,2.26E-05
mp-753826,62,0.513782916,4.025209092,Li4Cu4S4,0.026133393,169.2250969,,4.97160344,-49.15881243,520,0.000468575
mp-753832,6,0.828634418,8.778455009,Bi4O3F7,0.086431687,192.3591869,,,-70.71503895,520,1
mp-753833,12,0.051931604,2.699312095,Li2Cr1S4,0.039604354,119.4281665,,3.60499269,-35.29071007,520,2.3998852
mp-753846,160,-0.404332681,5.069252421,Mg2Ga4O8,0.021568881,149.2075794,,2.33977869,-84.60715967,520,7.00E-07
mp-753890,164,-0.147771838,8.335090038,Ni2H1,0.02317741,23.58691832,,7.7072088,-14.9537264,520,0.4081767
mp-753939,19,0.866675308,3.86199234,Li4Sn4P4O16,0.06182931,379.4435752,,3.27617163,-180.9025069,520,0.00040265
mp-753942,51,0.345512787,3.381777611,Ba2Y6Br22,0.099368023,1259.960187,,-1.43508282,-134.9809508,520,2.92E-05
mp-753947,31,0.672783865,7.973282559,Lu2H2O4,0.011233327,86.62643322,,0.7941948,-57.25927125,520,4.07E-05
mp-753954,2,-0.629227775,2.719412043,Cd1Cu1H8Cl4O4,0.027964611,238.0397391,,0.02856377,-76.1780946,520,1.0027552
mp-753982,215,0.586909387,1.594135208,Li3Cr1S4,0.043753699,209.4550662,,0.23677455,-39.26442479,520,1.0005055
mp-753983,227,-1.054523341,7.837642411,In4Hg2O8,0.004310413,209.4195012,,3.11499886,-68.14173345,520,3.58E-05
mp-753990,123,1.443829534,4.091837274,Ba1Y2F8,0.07406277,189.5678601,,-1.88280129,-73.87862473,520,0.0002495
mp-754005,14,0.540510586,2.540236199,Mg2C4O8,0.084461658,146.8512158,,1.36460031,-102.765994,520,0.0002838
mp-754009,161,0.037401948,7.085145271,Sc2Bi2O6,0.021432689,141.5282328,,4.00283057,-73.84052235,520,8.50E-07
mp-754010,59,0.496360546,6.080591483,Zn2Cu4O6,0.09861826,131.3550867,,4.11078937,-57.97503315,520,0.0004939
mp-754021,15,0.042200898,4.72937192,Ba2Y2Br10,0.06225107,439.4186181,,1.16683095,-60.93837013,520,0.00041115
mp-754031,166,0.533623302,4.692907521,Y2Br2O2,0,130.7858607,,0.99777673,-43.56869811,520,2.21E-05
mp-754038,166,2.051789955,5.270452092,Y2I2O2,0.0641799,146.0706153,,3.4667883,-41.73751738,520,0.0001008
mp-754047,12,1.930101769,4.003278326,Rb6Sb2O6,0.025508498,353.5392329,,1.20445291,-64.26362982,520,0.0003477
mp-754052,12,-21.14805174,3.24030866,Li3Fe4S6,0.195674979,223.7378587,,3.55452488,-72.16842406,520,10.6793553
mp-754060,146,1.549000805,4.064373578,Li7Bi1O6,0.012109076,144.4519018,,0.73657564,-70.36039568,520,4.89E-05
mp-754064,58,-1.01057804,4.84357752,Mn2P4,0.044208374,80.14450052,,8.03289351,-42.53617841,520,1.00518995
mp-754065,162,-0.050146873,7.137830953,Hg1Sb2O6,0,125.6499025,,2.95354519,-48.70244754,520,6.10E-06
mp-754071,31,1.775525254,10.02984549,Pb4O6,0.086987885,153.109091,,5.57475811,-53.56711085,520,9.26E-05
mp-754084,70,0.199499469,3.80231238,Cu4O2F4,0.030233119,158.1690331,,0.11195133,-44.94682504,520,1.8331286
mp-754085,58,0.77170943,4.386139744,Li4Bi2S4,0.103546636,217.3036484,,3.21133519,-40.19978428,520,0.0005088
mp-754086,38,-0.254123644,2.582978265,Li4Cu2S4,0.093718692,182.0089535,,,-40.23506488,520,0.92068715
mp-754114,227,1.207900249,3.949798276,Sr2Sc4O8,0.031264108,203.0833019,,1.756565,-114.6914448,520,1.81E-05
mp-754117,31,0.230504288,4.294972619,Y2H2O4,0.018270426,94.26864063,,0.94406767,-60.4195458,520,5.10E-05
mp-754118,162,-0.223719896,4.73006915,Sr1As2O6,0.000327227,117.0643952,,1.65656587,-56.64924356,520,7.66E-05
mp-754126,166,0.79849454,9.927748157,Cu1Au1O2,0.027479785,48.92615528,,3.96776783,-18.54378462,520,0.8084062
mp-754134,14,0.077846968,7.09942819,Hf2Zr2O8,0.039486131,156.1086682,,2.08775874,-117.6301326,520,4.76E-05
mp-754144,15,0.516380331,3.795423531,Ba2Y2I10,0.076131864,753.1795079,,0.15986187,-53.22714762,520,0.0008423
mp-754146,12,-1.772887908,3.725882228,Rb6Y2O6,0.021296729,350.5759632,,0.2161983,-75.0625468,520,4.26E-05
mp-754152,148,0.154393112,7.187687577,Y2Bi2O6,0.047028521,159.8162487,,3.6894113,-73.86032767,520,4.25E-06
mp-754157,194,-1.093633752,5.613815455,Al2In2O6,0.034823322,112.2824778,,5.77367802,-65.32906714,520,7.50E-05
mp-754163,166,0.836552324,2.363655583,Be2Cl2O2,0.134558782,84.95636985,,0.56315052,-30.31124134,520,0.0503397
mp-754165,194,-1.279830982,4.754282293,Sc2Ga2O6,0.017863962,113.6372133,,2.82520862,-75.29032159,520,0.00020035
mp-754171,62,11.17997187,4.337845369,Cs4Rb4O4,0.065566177,358.8739619,,1.63031828,-37.68580286,520,0.000281475
mp-754185,127,0.059844631,5.230376353,Y4Mg2Ni4,0,202.8718392,,4.53408364,-55.92815748,520,0.00111375
mp-754196,162,-0.523695042,3.921417379,Ba2Sr1I6,0.039360037,475.8353678,,0.13040655,-30.2333019,520,0.0006857
mp-754198,12,6.124683841,5.228133079,Ba1La2I8,0.078110077,454.3096617,,3.30704302,-40.88888445,520,2.46E-05
mp-754199,15,-1.008991285,4.432009578,Ba2Sr2I8,0.041559001,548.9395097,,1.30443391,-39.95452969,520,0.0007709
mp-754202,31,0.279605619,3.394875238,Cs2Cl2O6,0.040817345,211.6535318,,-0.3482594,-42.49909701,520,0.0001045
mp-754211,227,1.088909324,5.14378421,Sr2La4O8,0.048968965,277.2600196,,3.13167845,-107.5722389,520,8.95E-06
mp-754212,162,0,3.846165868,Ba1Sr2I6,0.014318431,463.6848041,,0.07431157,-29.96344844,520,0.0005505
mp-754223,5,-0.089054762,7.768093243,Ta2Cu1O6,0.104746817,111.4647307,,2.08727219,-77.65848935,520,1.0166691
mp-754238,119,-1.136569862,6.580184548,Li2Cu1Bi1O4,0.105019163,88.4265234,,4.30377049,-41.20812619,520,0.2793047
mp-754246,148,0.863333817,4.572233082,Ti2Sn2O6,0,155.8584133,,4.28862845,-76.92005148,520,0.000904
mp-754262,12,0.041929775,4.746963226,Zn2As2O7,0.026988576,137.3556623,,1.27441317,-60.55496341,520,0.0001003
mp-754272,14,1.400053204,4.729249112,Cs4Ba4O6,0.024569083,413.2435972,,1.49558276,-66.1956214,520,0.0003516
mp-754282,194,0.44998151,4.936046784,Sr2O2,0.090279987,69.7173534,,2.1468935,-23.84809293,520,5.11E-05
mp-754311,147,3.914627899,4.832017468,Mg1Re2O8,0,180.319798,,-1.51663821,-86.85809122,520,0.0006511
mp-754326,12,1.90246032,4.897726468,Na1Ag1O2,0,55.21541986,,0.75267504,-16.70494536,520,0.0001286
mp-754329,148,0.059464298,6.808460961,Cd2Sn2O6,0,136.1506899,,3.04688255,-53.87769301,520,6.67E-05
mp-754333,194,0.183912253,5.407232945,Ti2O2,0.13379847,39.22621852,,9.05264738,-35.40829188,520,6.59E-05
mp-754344,166,0.421456081,4.590915388,Li1Zn1O2,0.081390633,37.74307334,,1.12667237,-18.21723661,520,1.0205933
mp-754345,127,-1.308641791,6.703180247,Li2Ta2O6,0.088219185,116.8698113,,1.5275582,-83.48748369,520,4.29E-05
mp-754352,72,-64.98253353,3.216819373,Na6Cu2O4,0.022007282,169.8460915,,2.30893019,-49.21254627,520,5.26E-05
mp-754358,63,0.159927414,4.537254154,Zn2Se2O8,0.006070775,152.5155357,,0.84220224,-59.73817844,520,0.0001536
mp-754377,63,-1.524646448,2.510044705,K8Ti2O8,0.082634101,354.9359489,,0.0601665,-100.2317163,520,0.0008231
mp-754381,227,0.023513587,5.604034539,Zr6N8,0.035298443,195.3869931,,3.83097925,-138.1193018,520,0.00028005
mp-754382,191,-11.13121536,0.421185111,He1,0.00438156,15.78041747,,-14.02737936,-0.02108191,520,1.55E-05
mp-754384,194,1.030638453,7.805564289,Sc2Tl2O4,0.100258224,119.702493,,4.61052401,-55.92606856,520,0.0008089
mp-754401,36,0.288385787,2.528751209,Al4O6,0.045697674,133.9085322,,1.53158094,-74.3559985,520,1.76E-05
mp-754408,15,-3.785473309,4.739838874,Ba4Sr2I12,0.056290827,787.3470515,,1.9537722,-60.16184957,520,0.00156055
mp-754417,191,2.988083052,0.242135617,H1,4.44E-16,6.912340026,,-1.75255432,-3.01369715,520,1.00E-06
mp-754435,167,0.204883855,8.259907133,Lu2Al2O6,0.082431956,100.4966062,,4.68722888,-79.32456324,520,0
mp-754455,148,0.296691151,3.623180276,Sc4O6,0.086528386,126.411032,,1.92031817,-89.71564874,520,2.50E-06
mp-754466,164,0.610655208,4.669857086,Li2Ag1F3,0.018949742,63.55948917,,-0.7013346,-25.91483298,520,0.0013559
mp-754478,65,0.202814141,7.102128911,Hf1Zr1O4,0.040132811,78.02465244,,2.09250549,-58.8111862,520,2.80E-06
mp-754483,12,2.874934028,3.68937618,Na3Cu2O4,0.043743043,117.0490479,,2.70200599,-41.21014244,520,0.9635986
mp-754494,11,4.119266882,4.140180942,Ba2La2Br10,0.044737396,542.0600565,,0.07837369,-58.97881388,520,0.00047015
mp-754505,6,-0.790259595,7.70882999,Sr3Ta3N3O6,0.012798462,203.2843035,,4.1567692,-131.1897892,520,0.000953533
mp-754515,129,0.399663611,4.431649942,Ba2Mg2Ge2,0,175.5634164,,3.11095579,-19.4996941,520,0.0001718
mp-754516,129,-1.760836431,3.960070805,Li2Ni2P2,0.04203363,81.01957389,,5.44752794,-29.79513021,520,0.00028965
mp-754517,162,0.897616731,3.835461882,Sr1Ca2I6,0.032363339,402.2925025,,0.92198972,-29.53858793,520,0.001748
mp-754521,15,0.297239166,4.489682366,Sr2I4O12,0.004504101,323.569373,,1.60344205,-88.16063298,520,0.0002672
mp-754535,194,0.457328104,5.816196837,La2Ag2O4,0,159.1805032,,2.54086673,-53.13107661,520,7.15E-06