material_id,spacegroup.number,delta_volume,density,full_formula,e_above_hull,structure.lattice.volume,band_gap.optimize_structure_gap,efermi,final_energy,encut,total_magnetization
mp-10521,164,2.995404156,4.532039762,Y1Al2Ge2,0,105.577746,,5.13974989,-25.28738688,520,0.0006464
mp-10525,225,3.23938013,2.126703319,Na1Li2N1,0.313078235,39.72612625,,2.54390539,-13.23004267,520,0.0072266
mp-10533,62,-2.095158868,4.296364993,Y4Cu4S8,0,334.8343242,,4.12954786,-97.30732229,520,0.00013485
mp-10550,164,1.333188058,3.706632512,Sr1Mg2N2,0,73.57961085,,3.47096387,-25.04107136,520,0
mp-10554,221,-2.31712355,4.62535469,Ca3Tl1N1,0.014637657,121.5687033,,3.86507078,-19.90112975,520,1.05E-05
mp-10564,139,-4.305624558,4.089657824,Sr1N2,0,46.95106126,,4.3572694,-19.84425497,520,0.0002692
mp-10566,63,1.009321825,9.668403812,Lu6B2C6,0,196.3929967,,4.1996202,-102.8178773,520,6.63E-05
mp-10572,122,2.023463232,3.084900329,Na2P2N4,0,88.25302619,,4.40015732,-51.8760385,520,8.50E-06
mp-10580,164,1.936242202,4.922172868,La1Al2Ge2,0,114.0774367,,6.17348266,-24.04794828,520,0.0004024
mp-10584,225,5.229469352,6.816913612,Ba2Li1Os1O6,0,138.3162023,,3.29989464,-66.95268998,520,0.6020047
mp-10596,221,-0.079604378,19.2901849,Fe1Ir3,0,54.44656471,,9.06081051,-35.05475224,520,3.0472093
mp-10597,194,0.615485678,9.888476577,Ag2,0.01180118,36.22789737,,3.02877305,-5.63986792,520,2.77E-05
mp-10598,194,-0.822748116,7.86565031,Cu2Sn2,0,76.95312946,,7.83316181,-16.32292233,520,3.15E-06
mp-10600,221,5.016892129,5.365884516,La3Al1C1,0.034255548,141.024653,,6.8993465,-28.71594716,520,1.42E-05
mp-10601,221,0.832644719,5.007369962,Y3Ga1C1,0,115.5530565,,3.13753425,-34.06988516,520,2.74E-05
mp-10607,221,2.242587029,11.23642609,Lu3Tl1C1,0,109.549894,,4.36260146,-27.78869479,520,5.00E-07
mp-10608,221,14.36532693,5.609968025,Y3Sn1C1,0,117.6409076,,5.23588009,-35.92661511,520,2.00E-06
mp-10609,221,1.611588123,10.11442674,Lu3Sn1C1,0,107.636889,,5.29842936,-30.14624419,520,0.0002252
mp-10611,221,5.741684296,7.332682429,La3Pb1C1,0,144.0102995,,7.90663614,-29.8894491,520,5.75E-05
mp-10614,187,1.763426574,3.063702871,Sr1Li1P1,0.079945835,68.04033615,,2.59359762,-11.70492558,520,0
mp-10615,187,0.757363833,3.776226982,Ba1Li1P1,0.033386345,77.05993008,,2.54774001,-11.87125472,520,0
mp-10616,187,6.723989736,4.38381291,Ba1Li1As1,0,83.02655598,,2.13724203,-11.31732487,520,0
mp-10618,166,4.723107252,5.235831779,Li1In1Se2,0.080518908,88.6999273,,3.49744304,-14.80837811,520,0.0002263
mp-10627,221,11.02659509,4.025755699,Sr1S1,0.298960325,49.36752994,,3.51648314,-9.51519099,520,1.12E-05
mp-10628,187,2.129338881,11.38528162,Ta1S1,0.220393639,31.06784838,,9.30946798,-17.33871938,520,0.0002008
mp-10630,225,2.998275548,7.354584199,Sb1,0.324607295,27.49132079,,8.28566072,-3.80315398,520,3.20E-05
mp-10632,221,13.65703393,8.446140899,Tl1S1,0.306575805,46.48651233,,5.30033752,-6.39301719,520,4.06E-05
mp-10634,216,9.079898696,4.815901707,Cu1F1,0.334415321,28.46158671,,2.44062442,-7.57344886,520,0.0644613
mp-10635,225,8.308607174,6.752743668,Sn1Sb1,0.01039522,59.13297506,,6.9578596,-8.11636828,520,0.0002282
mp-10636,11,7.171472199,5.635473054,Sr2Sb4,0,195.1463142,,5.56911607,-23.87917128,520,2.50E-06
mp-10641,229,28.26978458,3.003594688,Sc4,0.10722085,99.41560658,,3.7414705,-24.91191404,520,0.0010955
mp-10644,217,7.617592459,7.031517791,Ta1Tl3Se4,0,262.1190859,,1.78699103,-37.73232851,520,5.42E-05
mp-10647,221,16.58174874,8.903203578,Tl1Se1,0.203183925,52.84643974,,4.50595355,-6.00304672,520,0.0067079
mp-10653,221,17.33110372,5.231496967,Sr1Te1,0.23909553,68.31337464,,4.52426726,-7.84076944,520,8.02E-05
mp-10654,221,3.828939805,6.484344602,Te2,0.043972215,65.35272091,,6.47929231,-6.19688583,520,1.65E-05
mp-10662,194,10.25759426,2.214808319,K4C2O6,0.00695866,207.2374628,,0.0655369,-73.75662807,520,0
mp-10667,194,4.411901624,5.260778638,Sr2Ag2P2,0,142.9632208,,4.31573207,-24.39737298,520,7.50E-07
mp-10675,221,0.911847348,4.351484855,Ti3Al1N1,0.017145701,70.43978028,,7.24571237,-40.49371482,520,2.12E-05
mp-10676,127,26.7545215,3.290025756,Sc4Al2Si4,0,174.6977999,,7.12559523,-61.61651646,520,5.46E-05
mp-10677,194,5.130354612,6.956809259,Ca2P2Au2,0,127.9479961,,5.66870507,-26.66744858,520,3.40E-06
mp-10678,194,7.555910171,10.55847793,Au2Se2,0.247666667,86.79032019,,4.16247638,-12.939778,520,2.14E-05
mp-10679,225,8.708362055,3.559202651,Ba1,0.01878187,64.06964344,,1.64996552,-1.90581179,520,0.0021373
mp-10680,221,10.04498498,5.550993648,Ba1Se1,0.20050004,64.70066985,,2.63813558,-9.10933223,520,0
mp-10681,191,3.264142749,10.89352445,B2Au1,0.666939982,33.3202403,,5.39016608,-14.63004772,520,3.83E-05
mp-10683,221,25.79909117,1.523568786,Ca1,0.41851735,43.68104954,,1.73800182,-1.60330171,520,0.0002773
mp-10684,221,21.66074647,4.601057182,Ca1Te1,0.3084097,60.51562808,,5.46866455,-7.82904677,520,1.55E-05
mp-10685,216,9.005978797,7.021505327,Cd1Cu1Sb1,0.318753993,70.40807894,,4.56991775,-8.2765711,520,1.29E-05
mp-10687,216,-3.508205189,4.720977812,Li1Cd1P1,0.225760069,52.87502006,,2.83869076,-8.6114173,520,5.00E-07
mp-10692,198,0.202160006,8.747531753,Co4Ge4,0.006376228,99.90586286,,6.11659198,-48.61355473,520,6.50E-07
mp-10694,221,2.869334284,2.511822891,Sc1F3,0,67.39878762,,-3.59716882,-27.87339892,520,0
mp-10695,216,1.284376169,3.998929773,Zn1S1,0,40.47567514,,1.90508083,-7.01785207,520,0
mp-10699,221,3.389252489,11.50306128,Lu1Rh3C1,0,71.55656661,,6.2566116,-38.60064136,520,7.48E-05
mp-10700,221,-0.427541456,6.376009477,Mg1Ni3C1,0,55.31542654,,7.10784146,-28.8401118,520,0.0140559
mp-10706,221,3.109243597,9.774538443,Zr1Ru3C1,0,69.0485076,,7.35409229,-47.22537311,520,2.07E-05
mp-10709,225,4.696849612,15.85727337,Re1C1,0.969450792,20.7569247,,9.31238796,-19.78007595,520,0.0010947
mp-10711,180,-0.321986714,4.640835431,V3Si6,0,114.9778896,,9.86826676,-64.1595995,520,0.0011123
mp-10712,221,4.428511022,8.768935198,Sc1Rh3C1,0,69.24798393,,6.65067322,-40.13077475,520,1.13E-05
mp-10721,227,2.178426309,4.43976891,Ti8C4,0,161.1924263,,5.98996473,-107.7927589,520,6.03E-06
mp-10729,224,15.31912012,8.109030453,Pd4O2,0.140264775,93.72187212,,3.37397067,-31.54988196,520,4.04E-05
mp-10735,224,-15.76320708,5.683817619,Zr4O2,0.226927847,115.9536344,,4.25690908,-53.34460379,520,0.1388619
mp-10736,193,11.44295707,3.844498863,Ba6N2,0,367.9903319,,1.95490084,-30.62256073,520,1.95E-06
mp-10739,189,2.211772112,7.173676854,Ti3P3Ru3,0,124.9354481,,9.01551255,-76.90260497,520,2.52E-05
mp-10744,194,10.64880772,9.666359221,Si6Pt4,0.013556473,162.9983711,,8.34318507,-62.02225663,520,1.60E-05
mp-10746,194,1.285538502,5.162069739,Mg4Si2Cu6,0,171.9921411,,6.73061452,-44.6863502,520,3.62E-05
mp-10748,215,-8.16924169,4.816680498,Ta1Cu3S4,0,172.3206673,,3.02376751,-45.63392114,520,0.0001109
mp-10749,194,2.697666216,5.715955543,Sr2Cu2Sb2,0,158.5751585,,5.34550815,-24.06861714,520,0.0002065
mp-10754,227,1.737003665,5.316344493,Fe2Rh4S8,0.07796311,243.577421,,5.28989177,-85.13143862,520,1.88E-05
mp-10760,225,1.082321482,4.098142142,Mg1Se1,0.018822255,41.84226853,,3.4535445,-7.56495107,520,4.00E-05
mp-10761,194,3.030932064,8.217916834,Fe2Te2,0.185075754,74.13498831,,8.34221891,-22.98743146,520,0.00102495
mp-10764,225,10.89004697,8.887134921,Hg1S1,0.18039511,43.47100768,,3.08551998,-4.33565431,520,0
mp-10769,194,11.95281581,7.83433745,Ba2Sb2Au2,0.60617479,193.3270709,,3.43239411,-20.56818962,520,9.35E-06
mp-10776,147,13.50186042,3.034925439,K2Sn1As2S6,0,294.9867152,,2.07488131,-46.9291932,520,0.0002789
mp-10785,166,3.774857581,5.788439576,Rb1Lu1Se2,0,120.0141193,,1.60385551,-19.29641668,520,7.78E-05
mp-10796,31,14.44439614,6.337621716,Hg2Se2O8,0,180.0278488,,0.22480361,-53.21472853,520,1.00E-06
mp-10797,194,-1.883345954,4.552268078,Ca2Si2Ni4,0,135.3670354,,5.73579306,-42.32205963,520,1.45E-06
mp-10802,19,37.71922972,3.635765116,Rb8As8,0,586.0287489,,1.73678507,-51.86761747,520,9.25E-07
mp-10804,12,6.564362473,3.766171813,Na2Y2P2O8F2,0.003101961,199.1721607,,1.50994826,-116.8940418,520,5.00E-08
mp-10809,2,10.24380684,4.41642122,Ag1Sn1F6,0,128.0510757,,,-33.66193157,520,1
mp-10810,2,9.274505226,3.669678391,Ti1Ag1F6,0.004913718,122.051546,,,-42.12051802,520,1
mp-10811,229,2.024258843,3.719150112,Na1Sr4B3N6,0,218.751436,,2.27494503,-93.0568219,520,4.00E-07
mp-10844,205,-1.553485745,10.61122299,Te8Ir4,0.07283872,280.0632487,,8.97878773,-63.2168768,520,4.53E-06
mp-10845,136,-0.725945017,9.40160649,Te4Ir2,0.29515259,158.0481796,,6.91200039,-30.27455518,520,0.0068585
mp-10846,198,2.446000642,6.978498791,Ni4As4Se4,0,202.329525,,6.47130997,-59.17169204,520,0.000784625
mp-10847,198,3.882587371,7.511399116,Ni4Sb4Se4,0,229.3932577,,7.61250386,-57.14117268,520,0.002010725
mp-10848,198,8.917440856,6.453749111,As4Pd4S4,0,219.6366699,,5.59747366,-60.13729583,520,8.50E-07
mp-10849,198,10.70936384,7.291810073,As4Pd4Se4,0,237.1103825,,5.06514789,-57.57974993,520,7.28E-06
mp-10850,198,13.69646586,8.067123954,Sb4Te4Pd4,0.454624145,292.9354169,,7.18133408,-54.27113995,520,8.50E-07
mp-10851,181,8.289108399,2.371524433,Si3O6,0.012644211,126.2129006,,0.38465844,-71.12414525,520,0
mp-10852,127,0.722241411,5.272565199,La2B4C4,0,116.2434572,,8.69840344,-77.88699804,520,6.00E-06
mp-10861,191,19.01382294,11.3431429,Hg3,0.003226227,88.09397773,,1.29968324,-0.90139267,520,6.33E-07
mp-10871,221,2.549856526,11.09775194,Al1Au1,0.145612856,33.50900053,,7.7044442,-7.51558056,520,6.50E-06
mp-10872,225,2.247024806,13.69836044,Hf1Al1Au2,0.019183264,72.66087575,,6.79879886,-22.25485476,520,1.87E-05
mp-10873,225,2.360640825,10.72474056,Sc1Al1Au2,0.004829463,72.13193606,,6.1801304,-19.43268698,520,2.11E-05
mp-10883,225,-0.429445444,7.024892728,Al1Cr1Co2,0.07085517,46.52984849,,6.98622348,-28.53558759,520,2.9974522
mp-10884,225,-0.640981415,7.18350967,Al1Fe1Co2,0,46.39214789,,6.80506848,-27.84779288,520,4.9789843
mp-10885,225,1.257679107,6.728188136,Al1Cr1Ni2,0.131250493,48.46339159,,7.94294241,-25.99039687,520,3.2777062
mp-10886,164,0.226611659,4.630631039,Al3Cu2,0.034085124,74.60169453,,7.84570055,-20.22782761,520,0.0002968
mp-10887,225,-8.687681303,9.277709782,Hf1Al1Cu2,0,59.52274345,,7.27187811,-23.23250379,520,6.70E-06
mp-10889,221,-8.853878995,5.977832375,La3Al1,0.026565938,123.2516604,,8.04092423,-19.28771255,520,0.0019057
mp-10890,221,0.754656053,2.237074865,Li1Al3,0.006497695,65.23585705,,6.04846774,-13.48541443,520,5.46E-05
mp-10891,225,0.069915638,8.265038393,Mn1Al1Pd2,0.031322376,59.22051087,,6.01989195,-25.63137836,520,0.5493055
mp-10893,225,-1.590516369,13.14200419,Mn1Al1Pt2,0.006316844,59.64994771,,7.30659679,-27.79406668,520,0.4492216
mp-10894,225,0.68985199,8.642108026,Mn1Al1Rh2,0,55.28603272,,7.18998797,-30.3624806,520,0.9722386
mp-10898,225,1.662703348,5.675436257,Sc1Al1Ni2,0,55.39315307,,7.14727344,-24.14551903,520,2.20E-05
mp-10899,225,-14.80682406,6.672939592,Al1V1Ni2,0.045026462,48.60221008,,8.1548628,-25.94114174,520,0.0008066
mp-10901,164,1.78802997,5.997110988,Al3Pd2,0,81.34597223,,6.75634466,-25.46409784,520,0.0001188
mp-10903,221,-0.972569504,12.47966918,Al1Pt1,0.104376381,29.5479384,,9.03693095,-11.68957279,520,2.40E-06
mp-10904,198,3.693415245,12.40425241,Al4Pt4,0,118.9103491,,8.44258256,-47.59330221,520,4.00E-07
mp-10905,164,2.171683992,9.600669195,Al3Pt2,0,81.48399605,,7.70729849,-28.34091089,520,1.40E-06
mp-10906,194,11.73084259,11.44573999,Zr2Al2Pt4,0.675413144,147.5088737,,5.94858475,-51.94296164,520,3.25E-06
mp-10908,221,4.841873473,12.32199887,Al1Re1,0.304746853,28.72974547,,7.96932428,-16.21149319,520,0.0003012
mp-10910,70,1.423526363,6.098592891,Al4Ru2,0,84.42553283,,9.0365913,-37.84252075,520,0
mp-10911,194,15.04311953,4.337630622,Sc4Al6Ru2,0,208.1986728,,6.45936029,-74.16214011,520,0.0007724
mp-10913,60,22.39771095,6.069568364,Ge4O8,0.040952997,114.5101609,,3.56793388,-76.99303376,520,4.38E-06
mp-10918,164,5.751285661,3.646350707,Rb2Pd1C2,0.067846575,137.246336,,0.68788032,-25.39386859,520,1.60E-06
mp-10919,164,5.659576183,4.759706622,Rb2Pt1C2,0,136.0752582,,1.22624915,-26.77167979,520,0
mp-10924,187,-2.247742919,6.633812615,Mg1Co6P4,0,125.6075865,,8.35521982,-72.85213943,520,5.10E-05
mp-10927,15,13.0212142,2.411313608,Sr2C4S4N4,0.034867216,280.6707639,,0.60847538,-96.56858214,520,2.50E-05
mp-10928,15,22.8606374,2.623344768,Ba2C4S4N4,0.018498504,320.9132367,,-0.04902378,-97.32071066,520,0
mp-10948,60,1.717147639,4.216930065,Si4O8,0.254450572,94.63977282,,7.68057639,-91.93051733,520,1.48E-05
mp-10950,12,7.270118049,3.71503734,Sr2Cu1P2O8,0.002921883,191.6322014,,2.2887075,-89.82500344,520,0.9998176
mp-10953,227,9.279625241,3.454896583,Sc4Cd2S8,0,317.7783601,,2.57758888,-82.05381409,520,7.55E-06
mp-10963,31,34.41304027,6.031333697,Ag4Sn2Hg2Se8,0,468.5243932,,1.86288651,-51.80052588,520,0.0001118
mp-10969,166,2.667134918,4.596316081,Cd1C1N2,0,55.07115484,,1.43514784,-26.41849661,520,1.00E-06
mp-10989,166,12.56985283,5.024860407,K1Yb1Se2,0.214863547,122.291209,,0.1477412,-14.83355339,520,0.0004283
mp-10991,129,2.269813255,6.620742557,Y2Cu2As4,0,151.6363845,,5.54677933,-46.3205561,520,5.50E-07
mp-10999,62,6.206952813,13.40274838,Lu4Ge4Ir4,0,217.9687038,,5.6283592,-83.42430563,520,1.98E-05
mp-11009,15,10.36654866,2.04694615,Ca2C4S4N4,0.086847604,253.496917,,1.24911911,-96.49225638,520,1.17E-05
mp-11016,146,11.21288538,3.352331224,Rb1Cd1N3O6,0.038549334,166.3819061,,0.13167538,-63.77984902,520,5.29E-05
mp-11017,146,10.23638809,2.967863428,K1Cd1N3O6,0.057777382,161.9915827,,0.08770863,-63.81230356,520,0.0002002
mp-11018,146,11.09977646,4.552659926,Tl1Cd1N3O6,0.046433687,165.8878769,,0.86701235,-63.00483852,520,0.0002004
mp-11019,194,0.985089316,6.043914149,Ga2Cu2O4,3.76E-05,90.81321381,,4.05285581,-44.68300102,520,2.31E-05
mp-11020,194,2.065513472,6.92942029,Ga2Ag2O4,0,100.4506475,,2.46138004,-41.43609521,520,2.50E-07
mp-11021,194,0.508122689,9.860738799,Ga2Au2O4,0.006830938,100.5976748,,4.02656648,-41.68216232,520,1.00E-07
mp-11022,194,2.060732841,5.387555708,Sc2Ag2O4,0,113.9313178,,1.95401426,-56.37710148,520,1.95E-06
mp-11023,194,0.842935116,7.988983926,Sc2Au2O4,0.013195897,113.8710467,,3.3754402,-56.74321404,520,1.74E-05
mp-11038,189,-0.078325129,5.979508923,Zr6Al2Fe1,0.00297034,182.4943642,,4.75214239,-70.00371802,520,1.86E-05
mp-11073,189,3.116799648,7.992633709,Ti3In3Rh2,0,144.1566852,,7.94997103,-50.30877702,520,0.0001507
mp-11086,127,-2.206275512,5.78406921,La4Mg2Cu4,0,246.4412215,,6.66156786,-41.27834566,520,0.00091745
mp-11101,62,7.349156825,10.46522553,Lu4In4Rh4,0,249.2360643,,6.17266462,-67.56491626,520,9.75E-07
mp-11108,12,4.094307689,3.348245043,Sr2P6,0.001726961,179.0764116,,5.58234586,-40.95950795,520,1.40E-06
mp-11114,11,25.34874783,4.867373286,K2Cu2Pd2Se10,0,412.0252079,,2.44246611,-62.47145223,520,1.24E-05
mp-11115,11,29.98531557,5.030436197,Rb2Cu2Pd2Se10,0,429.2822999,,2.24964094,-62.28655773,520,1.46E-05
mp-11131,5,33.77057608,4.275742164,K2Hg3Ge2S8,0.00020261,420.1178655,,0.96070574,-53.37869758,520,0.0001101
mp-11147,123,2.366675556,2.342284877,Na5Cu1S1O2,0,171.9594853,,1.26643516,-34.78911052,520,0.000115
mp-11165,60,16.60814948,2.83117397,Na16Mg8P8O32F8,0,864.5500926,,1.37418313,-435.6889368,520,4.32E-05
mp-11168,154,7.671819435,8.853600035,Ca3P6Ir6,0,273.7140918,,6.99540105,-104.9562824,520,2.00E-06
mp-11174,164,7.530920616,4.479595433,K2Ir1F6,0,142.4945379,,0.04854589,-41.99501361,520,1.0125916
mp-11175,82,7.244791395,2.497266405,Li1Zn1P1S4,0,153.9899296,,1.64243285,-29.73001529,520,0.0001254
mp-11176,217,5.026083572,7.954887671,Ca3Si4Ir4,0,209.0459259,,6.3516579,-72.74134803,520,4.81E-05
mp-11190,181,-0.426527933,4.640042508,V3Si6,1.56E-06,114.9975378,,9.86620784,-64.1595855,520,0.001110667
mp-11191,181,-1.07527072,5.032658967,Cr3Si6,0.011405799,107.070056,,10.98995221,-64.73264128,520,1.03E-06
mp-11192,181,1.900873605,8.940921786,Ta3Si6,0,132.1156253,,9.2058713,-72.42131026,520,0.000449333
mp-11193,194,4.957388553,7.57268615,V2Au2S4,0,136.8474502,,5.77836322,-46.88847309,520,1.98E-05
mp-11209,194,9.957562834,4.549896179,Al2As2,0.247331102,74.38153896,,6.25833347,-17.75877003,520,6.95E-06
mp-11212,194,3.948817571,7.816642393,La2As2Pd2,0,136.0642423,,7.62353755,-37.13307074,520,3.45E-06
mp-11213,194,13.70238982,6.104209016,Ba2Ag2Sb2,0.42998041,199.646976,,3.04225503,-19.85939985,520,8.05E-06
mp-11214,62,8.584376262,5.863424227,Ca4Ag4Sb4,0,305.5263662,,5.29192532,-44.24864743,520,5.05E-06
mp-11217,194,6.490985424,6.053568783,Sr2Ag2Sb2,0.211792695,174.047092,,3.80273584,-19.80587334,520,6.90E-06
mp-11220,194,-10.2935698,3.024325078,Sc4Al2,0,128.36318,,4.82521679,-34.92733547,520,0.0084482
mp-11227,204,0.711381788,3.857811771,Al12W1,0,218.496994,,7.33489862,-58.90720278,520,8.70E-06
mp-11229,221,-6.021361886,4.104683381,Y1Al1,0.012585852,46.88194318,,5.09504005,-11.04894995,520,0.0004365
mp-11230,62,0.986649256,4.241096216,Y8Al4,0,320.7351595,,4.106201,-70.4824507,520,5.49E-05
mp-11231,221,-3.359253199,3.642540329,Y1Al3,0.019624951,77.43039307,,6.34842307,-19.38027041,520,5.00E-07
mp-11232,194,-5.969707275,2.391903692,Y2Al6,0.94246428,235.831677,,3.29968517,-31.37782619,520,0.01106675
mp-11236,225,1.932463523,7.343832769,Mg1Zn1Ag2,0,69.06643029,,3.75110353,-9.18705105,520,2.39E-05
mp-11237,221,1.152642305,6.208560707,Sc1Ag1,0,40.87427283,,4.06968261,-9.71678308,520,1.08E-05
mp-11239,129,-2.23841467,8.085383469,Zr2Ag2,0,81.77728908,,4.0778735,-23.24937368,520,7.50E-07
mp-11247,225,0.096441614,5.770880667,Li3Au1,0,62.66774565,,1.7854912,-10.62198687,520,1.88E-05
mp-11248,221,4.88310526,14.68637608,Li1Au3,0,67.59583358,,4.21253564,-13.16584561,520,3.89E-05
mp-11249,221,1.417109809,13.9962143,Lu1Au1,0,44.12694734,,4.55330287,-9.59469451,520,9.12E-05
mp-11250,62,24.87299365,6.8816724,Mg72Au36,0,2133.263607,,4.55186181,-289.4703667,520,8.33E-07
mp-11251,194,19.1995628,5.065609575,Mg6Au2,0.210050583,176.93779,,3.54572907,-17.74178756,520,3.00E-07
mp-11253,62,17.81950297,7.710811,Na4Sn4Au4,0,291.7299756,,4.56192216,-38.79534732,520,2.50E-08
mp-11256,221,1.504170598,10.09936637,Sc1Au1,0,39.7769236,,5.25796065,-11.20286299,520,7.82E-05
mp-11259,221,0.798436717,11.53236051,Ti1Au1,0.11762664,35.25346778,,5.96997701,-11.78972482,520,1.0470329
mp-11260,221,-3.624491126,8.354149544,Ti3Au1,0.12174963,67.6939934,,6.06405529,-27.88174925,520,0.0015645
mp-11261,221,2.183867093,10.04366088,Y1Au1,0.03154871,47.26387297,,4.60038308,-11.45297716,520,6.48E-05
mp-11263,223,4.743629007,9.202325096,Zr6Au2,0,169.8513603,,4.54790986,-60.57857407,520,4.90E-06
mp-11265,62,9.511839212,4.240256592,Ba4Ca4Sn4,0,463.8497762,,3.24879662,-39.87155583,520,1.35E-06
mp-11270,194,-7.184337155,4.819796327,Mn4Be8,0,100.5494178,,5.39481918,-69.57145333,520,0.232187875
mp-11271,223,-2.532078947,8.617301675,Be2Mo6,0.133897028,114.3980901,,6.9848742,-72.52862588,520,5.91E-05
mp-11272,127,2.700461491,6.853193196,Be4Nb6,0.036914057,143.8027965,,4.14259798,-76.8632964,520,3.80E-06
mp-11274,221,0.316257102,8.437281305,Be1Pd1,0,22.71817636,,5.75441711,-10.07722912,520,1.71E-05
mp-11275,194,2.854941593,11.4258357,Be8Re4,0,118.7253736,,6.49250904,-84.3003929,520,5.65E-06
mp-11276,221,1.069422816,8.590554463,Be1Rh1,0,21.63349072,,5.69055363,-12.33035986,520,0.0002157
mp-11277,191,-0.407307072,2.397614844,Sc1Be5,0,62.3438112,,3.84917521,-26.21898882,520,0.0001325
mp-11278,140,1.201737366,13.76092256,Ta4Be2,0,89.51538171,,4.9105466,-55.86343223,520,2.63E-05
mp-11279,221,-0.240209395,3.752192816,Ti1Be1,0.00631261,25.17197461,,5.18000495,-11.91394663,520,4.64E-05
mp-11280,191,-0.078351803,2.282415649,Ti1Be12,0.085722513,113.5051729,,4.57789478,-53.57829015,520,0.0002633
mp-11281,194,-2.354183728,3.936240775,Be8V4,0,116.3755127,,4.48718345,-68.86200807,520,0.00097335
mp-11282,194,17.78554957,10.61129358,Be8W4,0,126.3573209,,5.40701634,-85.4046336,520,9.00E-07
mp-11283,191,-0.410230115,3.623392497,Zr1Be5,0,62.457052,,3.92007033,-28.72682719,520,1.10E-06
mp-11284,194,2.897254226,4.589510414,Ca2Ga4,0,129.9078044,,3.63452922,-19.24503216,520,6.90E-06
mp-11285,217,-1.074264959,5.201688856,Ca3Ga4Ni4,0,202.3602454,,4.32387282,-46.59075013,520,5.36E-05
mp-11286,221,2.27477336,7.215028507,Ca1Hg1,0,55.38974784,,3.01955761,-3.42845641,520,0.0001914