material_id,spacegroup.number,delta_volume,density,full_formula,e_above_hull,structure.lattice.volume,band_gap.optimize_structure_gap,efermi,final_energy,encut,total_magnetization
mp-12427,87,3.965075818,6.841670858,Sr2Ta1Ga1O6,0,126.6718952,,2.62074475,-75.60709725,520,4.00E-07
mp-12433,186,3.590782072,4.778073556,Na2Sn2N2,0.059519377,108.2263251,,4.72673641,-27.82559611,520,1.00E-07
mp-12442,166,14.23681362,4.374116486,K1Au1F6,0,132.8909447,,-3.23607281,-27.59810102,520,0
mp-12444,129,1.476953771,4.89980116,Sr2Cu2S2F2,0,137.0707945,,4.45935567,-40.17307839,520,1.15E-06
mp-12459,31,13.95746528,4.515086216,Ag6P2S8,0,355.152443,,2.74324708,-63.76487123,520,0.00061755
mp-12480,62,0.419061631,9.381057888,Sc4P4Pt4,0,191.8882887,,8.03314829,-86.15620855,520,3.79E-05
mp-12481,194,26.87760464,9.514184383,La4P4Pt4,0,254.7924953,,8.67766536,-82.3633484,520,0.000574675
mp-12505,186,5.146490316,9.54604293,Lu2Ag2Sn2,0,139.697985,,5.52605694,-25.8516935,520,8.85E-06
mp-12509,166,2.295917878,4.973858447,Y2Zn2P2O2,0,134.4013328,,4.57145899,-51.0762924,520,3.79E-05
mp-12510,189,6.642398395,8.272917672,La3Sn3Pd3,0,219.2074672,,8.38983681,-50.8932752,520,0.000344633
mp-12515,129,3.893256358,6.51819903,La2Zn2Sb2O2,0,174.2895585,,6.80695508,-44.6714249,520,3.05E-06
mp-12520,194,0.481170332,5.943042029,Sr2Ni4Ge2,0,155.153993,,4.41704171,-39.07489669,520,8.45E-06
mp-12521,194,0.800342253,6.694657069,Sr2Ni6Ge4,0,202.8864456,,4.99597463,-61.94894524,520,4.35E-05
mp-12524,181,10.91132184,8.488349953,Al6W3,0.100180304,139.5611499,,7.31925828,-61.66004933,520,1.72E-05
mp-12525,225,8.439758675,6.125297235,Sr2Li1Re1O6,0.010560155,125.8924092,,2.24746067,-70.69098652,520,2.00E-06
mp-12531,166,8.730666155,6.356053812,Sn4As3,0,182.7739534,,6.28872904,-30.5796648,520,0.0004528
mp-12532,121,7.885197758,3.650311913,K1Ag2P1S4,0,188.3611217,,2.5685681,-32.52741996,520,2.54E-05
mp-12537,194,0.879627718,5.33277308,Ti4Ga2C2,0,110.5211265,,5.5323216,-62.16597301,520,8.95E-06
mp-12546,59,1.895075692,7.648117134,Ti2Cu6,0,103.5671543,,6.87444183,-41.11416502,520,1.90E-06
mp-12549,191,2.324700205,3.790139468,Ba1Al9Ni2,0,217.985987,,6.91868401,-51.56137232,520,5.76E-05
mp-12550,123,1.168285582,14.13016976,Al1Cu1Pt2,0,56.49002961,,8.01106564,-22.7785905,520,1.10E-06
mp-12557,194,5.735356755,5.509454768,Sr2Cu2As2,0,136.2847331,,4.65067438,-25.71340672,520,3.65E-06
mp-12558,216,0.673677598,2.939833037,Li1Mg1As1,0,59.96784252,,2.17753403,-10.40323517,520,5.38E-05
mp-12559,225,13.17614163,9.10608585,Mn1As1Pd2,0.064383123,62.49294691,,5.6932739,-25.14620215,520,0.7470201
mp-12564,216,3.57802138,8.08020598,Li1Sb1Au1,0.066975608,66.92697114,,4.05498251,-10.27512527,520,0.0001459
mp-12571,194,0.680601563,8.428036766,Hf2Be2Si2,0,84.95258681,,6.83434439,-42.17120889,520,1.70E-06
mp-12572,221,7.483086319,7.856028486,Ca1Pd3C1,0.238067465,78.49246154,,4.83047807,-27.73295066,520,2.12E-05
mp-12580,225,1.371617404,5.337234116,Li2Cd1Sn1,0,76.22619461,,3.85747613,-10.02535324,520,0.0001695
mp-12581,123,6.726102206,6.531948735,Cd1Te1,0.47319332,61.01511994,,3.86858825,-4.03580835,520,0.0014126
mp-12593,221,2.262211291,16.76164732,Sc1Ir3,0,61.58121129,,7.94103738,-35.31000558,520,3.03E-05
mp-12594,221,2.161654177,13.10585152,Ti1Ir1,0.076131125,30.41914937,,8.56723706,-18.30215086,520,0.0003725
mp-12595,51,1.590006338,11.08878585,Mo2Rh2,0,59.55398906,,7.61721133,-37.18489688,520,3.50E-07
mp-12603,216,4.394474405,8.70081507,Sc1Sn1Pt1,0.584026651,68.46694587,,5.63422323,-17.66491319,520,1.47E-05
mp-12608,225,5.58788207,19.40822557,Cu1Pt7,0,122.2745888,,7.16682237,-47.10154125,520,4.10E-05
mp-12609,225,55.88835825,2.007031031,Li1Ca6Ge1,0.193790941,264.7960351,,2.20727289,-18.93869935,520,0.0006302
mp-12612,148,32.39766031,4.930208605,Ba9Ag6,1.10E-05,634.2627659,,2.24560424,-37.70286334,520,0.000405633
mp-12613,62,10.87875256,7.755328719,La4Ni4Sn4,0,270.9070093,,8.75633168,-66.50298092,520,4.75E-07
mp-12623,140,12.46551632,4.868593366,Ba2Pd2F8,0,218.1088994,,-0.04059244,-59.98741412,520,4.07E-05
mp-12626,166,7.263502795,3.085027052,K2Sr1Be2F8,0.002735153,180.7620517,,-2.17249262,-69.75374042,520,4.00E-07
mp-12627,176,7.646817029,4.898841353,Nb6S8,0,275.9039135,,5.11618663,-109.0950306,520,2.06E-05
mp-12628,225,38.63639492,1.561448862,Rb1,0.05114149,90.89162125,,0.02276242,-0.96539098,520,0.00049
mp-12630,63,9.434380615,3.624468915,Mg2Se2O8,0.001744233,153.2616688,,1.20926988,-66.68402459,520,2.40E-06
mp-12631,221,1.5192046,6.143116321,Sr1Tc1O3,0,63.1490796,,5.72041419,-37.11278593,520,0.0345434
mp-12636,62,2.442675397,8.012174983,P4Ru4,0,109.4653186,,9.5810464,-63.24384788,520,0.00016505
mp-12644,225,5.318605829,6.994130465,Ba2Lu1Nb1O6,0,151.5976389,,2.0509003,-79.09221912,520,0
mp-12651,198,17.28105951,11.03347051,Mg4Pt4,0,132.0723155,,5.60709971,-36.40741484,520,5.45E-06
mp-12657,194,1.85180079,7.417121586,Hf4Al8,0,208.1656099,,7.2001508,-75.12229276,520,6.90E-06
mp-12659,194,-6.250260646,8.47951384,Mn8Nb4,0,158.8431669,,5.98440496,-115.4059323,520,0.0057399
mp-12661,221,5.096044759,7.737112043,Cd3In1,0.020662988,97.01918874,,3.72590091,-5.41340945,520,1.24E-05
mp-12673,164,-0.213571357,8.919847735,Lu2S1O2,0,77.07076733,,3.2344514,-39.34304571,520,0.0001313
mp-12678,194,-2.64392674,12.19993632,Ta4Mn8,0,158.3367464,,6.31750477,-123.4009662,520,0.0114332
mp-12681,156,-14.64949475,4.686732426,Li1Mn1Te2,0.152390836,112.3431178,,3.15025171,-18.58649835,520,4.0136626
mp-12682,156,-0.515998451,4.3737077,Na1Mn1Te2,0.123853542,126.4766141,,2.78151176,-17.98397471,520,4.0057939
mp-12684,63,0.008967087,5.190966474,La4Al4,0,212.2624797,,7.80039709,-37.99281993,520,2.58E-06
mp-12695,166,-5.114646196,6.399633999,Ca1Mg2Ni9,0,160.0769709,,6.17416322,-59.24568447,520,0.0027889
mp-12696,189,4.013064741,5.530587411,Y3Mg3Pd3,0,197.8301257,,4.13107552,-45.992176,520,0.0002274
mp-12697,191,-6.405540592,7.941956187,Sc1Mn6Sn6,0,227.2421494,,8.38484806,-86.93083526,520,12.861372
mp-12699,148,13.3295239,8.999981387,Ca6Au8,0,335.0975731,,3.92686637,-49.19581928,520,2.47E-05
mp-12700,11,10.8486885,17.53978744,Nb4Pt12,0.001982405,256.8123403,,7.28186718,-123.5618535,520,5.00E-07
mp-12712,148,-10.35795287,8.959921527,Zr6Pd8,0.003994212,259.2213102,,5.13257524,-102.4510126,520,1.85E-06
mp-12724,62,17.85710838,3.978955531,Sr4Zn4,0,255.4546054,,2.00394881,-13.46582282,520,0.000352525
mp-12725,221,3.068542026,6.339900003,Nb1Ag1O3,0.096702946,65.15826954,,1.76789315,-36.4676203,520,4.50E-06
mp-12735,194,48.35681592,5.55490289,K4Ag8,0,304.7131347,,1.83622296,-27.22523411,520,1.38E-06
mp-12743,10,9.582102784,7.343431128,Cr1Te4Au1,0,171.7114705,,5.4974899,-26.32843738,520,2.887852
mp-12752,191,-87.26139033,5.301548829,Zr4Al3,0,139.6451814,,5.40643202,-48.68330462,520,0.0001191
mp-12759,59,1.186927936,11.04927617,Zn4Cu2Au2,0,117.6221279,,4.81983957,-21.03780699,520,2.20E-06
mp-12760,189,2.485407669,5.999279185,Zr6Al2Co1,0,182.7477458,,4.70474012,-68.99628919,520,0.0047438
mp-12771,227,8.705984064,4.110662652,Se2,0.509299711,63.79320013,,1.95497926,-5.9603994,520,1.57E-05
mp-12772,140,-0.63454415,10.39628471,Hf4Al2,0.039486618,122.6559569,,4.96068225,-48.89586469,520,3.09E-05
mp-12773,140,-2.434154895,5.486264141,Zr4Al2,0.057852057,126.7769528,,4.53526801,-43.59701964,520,2.35E-06
mp-12777,225,0.431417126,7.268635639,Al1Cu3,0.02443272,49.71575928,,7.82305967,-16.70441931,520,6.00E-07
mp-12778,221,0.373591095,14.48659971,V1Os1,0.006330658,27.6444921,,7.97097591,-20.76793498,520,0.2748293
mp-12779,186,10.53299746,5.466196012,Cd2Te2,0.004014725,145.8226652,,1.79441538,-9.94833108,520,5.55E-06
mp-12780,129,9.95401782,9.280169926,Sr2Ga4Au4,0,222.2358687,,3.72262754,-34.54840556,520,7.10E-06
mp-12794,123,4.670152096,4.004613436,Al2Cu1,0.149974527,48.7259041,,6.94635842,-11.67447151,520,1.66E-05
mp-12798,221,-4.167085964,12.69028304,Ni3Pt1,0.001535165,48.56728904,,7.57116278,-23.67875192,520,0.00952
mp-12801,225,2.206966674,9.089921263,Co1Cu2Sn1,0.247209631,55.66876473,,8.51360972,-18.53000693,520,0.9892546
mp-12802,59,-0.438709349,7.287479742,Al2Cu6,0,99.17440665,,7.8360683,-33.60430038,520,1.85E-06
mp-12807,92,6.098135157,2.687499486,K4Al4O8,0.003958899,242.4013984,,1.31492226,-100.0810048,520,0
mp-12814,194,17.39846559,5.289410113,Ba6Sb2N2,0,343.9160211,,3.16442536,-44.62782734,520,1.28E-05
mp-12815,194,11.7807714,8.853069654,Na4Li2Au6,0,241.5181839,,2.89364894,-33.96529377,520,1.65E-05
mp-12832,164,9.930679022,6.03046037,Ba3Ca1Ru2O9,0.015793138,219.789461,,3.57371009,-101.5372709,520,0.0063657
mp-12843,19,1.115659882,4.298637547,Y4Cu4S8,2.13E-05,334.6573079,,,-97.30698159,520,0
mp-12860,12,7.124251229,4.837676081,Na3Cu2Sb1O6,0.039380683,142.0435035,,4.32162837,-61.18420802,520,8.60E-06
mp-12866,74,3.697172876,6.124688125,Sr2Sn2O6,0.005883133,137.9080523,,3.98852837,-63.27583335,520,0.00011145
mp-12867,140,2.476222957,6.13703975,Sr2Sn2O6,0.011400256,137.6304936,,4.04676644,-63.22066212,520,1.00E-07
mp-12874,225,1.829999156,5.691624634,Si2Ru1,0.292496019,45.87527042,,8.22788062,-20.87728967,520,1.00E-07
mp-12875,136,1.885029795,10.89317355,Re2O4,0.131794518,66.52592984,,5.64109497,-52.52155886,520,1.80E-06
mp-12883,12,68.99829018,1.486758684,P8,0.13977529,276.753136,,-0.46188902,-42.16015246,520,0
mp-12885,155,10.74245876,4.224100753,Ba1Al2Sb2O7,0,214.9552199,,1.95838593,-80.70712478,520,4.49E-05
mp-12892,191,-0.224085159,2.603688034,Ca1Si2,0.082128305,61.38416737,,6.09130929,-13.75587083,520,9.73E-05
mp-12894,164,4.398763428,4.789263283,Y2S1O2,0,83.86335995,,3.20219348,-42.84211487,520,9.12E-05
mp-12903,113,6.813509656,6.227446922,Y2Ag2Te4,0,241.0363555,,4.21227841,-38.59334719,520,1.63E-05
mp-12905,176,18.42533201,4.96292127,Ba6Cr2N6,0,338.60223,,3.44549482,-91.35092924,520,7.15E-06
mp-12906,176,-0.376952484,4.252480494,Sr6Cr2N6,0,278.7111491,,3.80500916,-91.02459182,520,9.15E-06
mp-12908,164,1.992748209,5.823987925,Sc1Ag1Se2,0.00199748,88.59955345,,3.59731208,-20.51363086,520,1.42E-05
mp-12911,148,5.106263559,6.28448356,Ba2La1Ru1O6,0,161.344697,,4.03917448,-71.39381591,520,3.0004937
mp-12923,198,7.09427978,7.936242437,Sr4P4Ir4,0,260.1298579,,5.37131477,-75.55513039,520,4.13E-06
mp-12924,11,19.00981431,2.968302113,K2La2Si2S8,0.002294697,374.0859217,,2.73236676,-76.70088291,520,1.56E-05
mp-12927,140,2.47542774,4.44014333,Ba2Be4N4,0,137.1506848,,2.85421069,-61.77780983,520,2.00E-07
mp-12947,194,-1.168284175,5.792408908,La2Mg2Cu4,0.003461213,166.4449428,,6.24391891,-30.90473029,520,7.53E-05
mp-12951,187,4.218954386,10.46106786,Zr2Ga2Au2,0,113.6269188,,4.91971395,-33.28149097,520,4.80E-06
mp-12952,187,3.712354906,13.3014761,Hf2Ga2Au2,0,111.151281,,5.37029879,-35.58172416,520,9.00E-07
mp-12957,12,29.05042432,1.974484792,O8,0,107.6437901,,-1.27352315,-39.48422335,520,0
mp-12958,166,28.41693351,5.765226972,Ba3Si3O9,0.294890394,184.4039102,,4.39080793,-107.0072835,520,2.78E-05
mp-12961,189,3.508817196,6.101195508,Y3Al3Pd3,0.013308564,181.5136544,,5.21793897,-54.06684431,520,3.87E-06
mp-12962,189,2.645617626,7.276886087,Zr6Fe1Sb2,0,193.2135989,,5.82717121,-72.69961836,520,0.0052103
mp-12972,189,5.607306436,8.18285662,Zr6Sb2Pt1,0,200.0774572,,6.01740857,-72.09820492,520,1.04E-05
mp-12978,60,7.497934056,6.741200909,Sn4O8,0.018099077,148.4945187,,5.46417717,-75.18456192,520,1.83E-06
mp-12979,225,2.994973889,7.335947839,Sn1O2,0.244548777,34.11390751,,7.37353102,-18.11679138,520,1.50E-06
mp-12981,221,-1.145886534,4.501242862,Sc1N1,1.032548585,21.75170772,,6.75080531,-16.42905656,520,9.00E-07
mp-12982,221,0.265672003,5.083932961,Sc1As1,0.48267062,39.15497908,,5.8316247,-12.77190253,520,1.64E-05
mp-12983,221,0.288744045,5.790948658,Sc1Sb1,0.323491825,47.80534189,,7.08123184,-11.68799149,520,0.0014364
mp-12990,194,11.17010056,3.993101559,Ti4Al2C2,0,112.0523361,,6.42438856,-63.1355162,520,0.00044495
mp-13005,194,-6.477704212,7.022435633,La2Cr2Ge6,0,193.3415165,,6.62500591,-61.46392917,520,0.00034565
mp-13024,63,14.66414349,3.369006979,Al2P2O8,0.106403194,120.2179478,,3.9353413,-88.55721605,520,0
mp-13031,216,-0.121286062,3.174660543,Mg1Se1,0.00506499,54.01382656,,0.89917129,-7.5924656,520,8.90E-06
mp-13032,216,-0.240728048,2.023763227,Mg1S1,0.01573831,46.25273572,,1.36673927,-8.55735981,520,1.51E-05
mp-13033,216,-0.139691523,3.652713552,Mg1Te1,0.000890352,69.0566559,,2.01006184,-6.49342819,520,1.91E-05
mp-13034,216,0.915420976,7.158452637,Mo1N1,0.329306363,25.50422513,,7.35200715,-19.26082095,520,0.0363207
mp-13035,221,-0.381032028,9.228859963,Mo1N1,0.746385913,19.78259378,,10.52896598,-18.42666185,520,0.0057972
mp-13036,187,0.764551892,8.863077902,Mo1N1,0.091556458,20.59902775,,10.35440459,-19.73632076,520,8.00E-07
mp-13051,194,18.19142631,3.523173644,Sr4Si2,0.078085968,191.6623844,,3.37081136,-19.32837295,520,1.50E-06
mp-13053,62,0.609608553,3.471198419,Sr4Si4,0.007421295,221.4030737,,4.22486067,-32.13262582,520,2.05E-05
mp-13055,12,4.492141925,6.912438717,Ba2La1Ta1O6,0,165.8761084,,2.83418664,-81.2710899,520,0.000355
mp-13056,148,4.324155948,6.91072408,Ba2La1Ta1O6,0.000414709,165.9172644,,2.77408192,-81.26694281,520,2.60E-06
mp-13060,164,0.065220358,4.061806112,Sc2O3,0.132097629,56.38008623,,3.69475752,-44.62997816,520,0.0001586
mp-13061,164,1.148002711,5.379087249,Y2O3,0.07125463,69.70813769,,2.53371424,-45.20995679,520,0.0001208
mp-13068,164,0.114962578,10.39274266,Lu2O3,0.092821871,63.58109453,,2.28110899,-41.97989397,520,7.00E-07
mp-13070,194,7.380892925,3.024334907,Sc4Al2C2,0.102679623,141.5519345,,4.43170527,-54.77515904,520,0.00055225
mp-13071,194,10.33707567,6.707251984,Sc4Tl2C2,0.013349812,151.6665186,,5.33224184,-52.54857754,520,6.67E-05
mp-13076,58,3.769827452,13.02912975,Ir2N4,0.214641222,56.13593293,,8.65949245,-48.2496952,520,8.20E-06
mp-13079,216,-2.426968665,6.868234423,Mn2Al1Co1,0.03248171,47.33651856,,6.90244245,-30.25351298,520,9.20E-06
mp-13082,216,-4.246009878,7.341946234,Mn2Co1Si1,0.02038616,44.53199013,,8.16708327,-32.28673736,520,3.0052836
mp-13085,216,2.312233028,8.973984431,Mn2Co1Sb1,0.135396413,53.76671258,,8.64833853,-29.35047492,520,3.9943932
mp-13090,189,-0.414978776,3.262014207,Y3Mg3Al3,0,214.0961869,,4.17857356,-38.4191781,520,0.0007133
mp-13092,189,2.447843175,5.959993996,Zr6Al2Ni1,0.015718174,183.8855139,,4.8389343,-67.67184523,520,1.90E-05
mp-13095,189,0.177278888,5.292877852,Y3Al3Ni3,0,164.3141349,,5.69333777,-53.36722642,520,3.33E-08
mp-13097,129,6.925912957,4.312805164,Na2Zn2As2,0,125.7649437,,2.82166875,-17.01219127,520,1.03E-05
mp-13098,221,2.00785025,6.275531385,Y1N1,0.935319095,27.23120904,,5.54244988,-16.3073846,520,8.80E-06
mp-13099,216,2.04962495,4.60189815,Y1N1,0.24831613,37.13474341,,2.13649137,-17.68139053,520,0
mp-13100,221,-0.292436552,17.94842343,Mo1Pt3,0.155119232,63.02202052,,8.08922257,-29.55397516,520,0.0245696
mp-13108,99,-0.096219927,7.345445703,Sr1Hf1O3,0.0294929,71.00847927,,2.32687324,-43.34647911,700,5.40E-05
mp-13109,74,8.348821149,7.493385412,Sr2Hf2O6,0.002705888,139.2131594,,2.1704842,-86.96082833,520,4.75E-06
mp-13116,216,-0.069552839,6.0102719,Ni1N1,0.286226524,20.08583909,,6.23593278,-13.24334368,520,0.0015762
mp-13117,216,0.432007497,5.9205391,Cu1N1,0.785405749,21.75127701,,4.72180008,-10.48095296,520,6.30E-06
mp-13119,186,5.526619087,6.228067683,Cd2O2,0.007251798,68.47404146,,0.04939684,-15.79654245,520,9.00E-07
mp-13126,186,19.47961211,5.639728508,Zr2N2,0.444414228,61.96741042,,5.53874425,-38.70328549,520,0.0004677
mp-13132,221,2.397586028,7.966616697,La1N1,0.59324591,31.87258,,10.02757014,-14.72651511,520,5.20E-06
mp-13133,63,8.109697961,2.923538281,K4Ti2O6,0,197.7305487,,0.54668432,-79.01089604,520,3.29E-05
mp-13136,225,4.551046042,15.42466757,W1C1,0.450730445,21.08426207,,9.3758272,-21.52827153,520,3.00E-06
mp-13137,194,1.529720362,11.15244138,Hf4C2S2,0,119.4301094,,7.51213727,-77.2582889,520,2.99E-05
mp-13138,194,3.801529912,8.884813369,Cu6Sn2,0.019454634,115.6320138,,8.53117817,-32.56445434,520,8.70E-06
mp-13141,221,19.3396569,9.847348271,Hg1Te1,0.410571505,55.34203651,,4.62149519,-2.96215945,520,5.00E-07
mp-13146,164,0.910484538,2.7598659,Ca3N2,0.092992462,89.19657844,,2.79450655,-26.16851958,520,1.34E-05
mp-13148,194,1.35776795,2.825339725,Ca6N4,0.194967187,174.2591116,,3.20909689,-51.31729191,520,5.05E-06
mp-13149,187,-0.408408296,3.806506186,Ba1Al1Si1,0,83.92940836,,4.19390823,-12.2464444,520,0.0003409
mp-13150,160,4.269291738,2.060323031,B1N1,0.003979163,20.00208662,,1.60287193,-17.56727521,520,0
mp-13152,129,18.24473539,4.031414883,Ti2Se2,0.297290218,104.4800354,,3.29163627,-26.09821422,520,5.59E-05
mp-13154,182,7.704383013,7.333629356,Fe6C2,0.053099992,81.30834812,,5.9573421,-68.78513245,520,5.9293878
mp-13156,129,-4.530595607,12.03517632,Hf2Ag2,0,79.01985942,,4.45226438,-26.04526991,520,8.00E-07
mp-13160,194,4.885182417,6.121818163,Y4Zn4Ge4,0,246.2453988,,3.79233644,-57.59217436,520,2.16E-05
mp-13161,221,1.766688785,6.930472017,Zn1O1,0.715684303,19.5054285,,3.08347824,-7.66923477,520,3.65E-05
mp-13166,166,6.277339249,7.866517667,Yb1Ag1O2,0.118421741,66.05137259,,-0.22138327,-20.56886228,520,0.0013521
mp-13171,189,1.164420959,4.563729442,Y3Mg3Cu3,0.002363086,192.9419702,,4.06101761,-38.46477121,520,4.40E-06
mp-13172,216,-0.275803641,6.473156783,Y1Mg1Cu4,0,94.24667314,,5.54608876,-25.86619707,520,0.0001539
mp-13173,194,0.58761711,15.12338502,Pt2N2,1.136778236,45.91607895,,7.30513896,-23.47148923,520,6.55E-06
mp-13174,216,0.659065153,12.70471509,Pt1N1,0.936383794,27.32869393,,5.96808798,-12.1365335,520,0.0002196
mp-13175,225,0.660348712,15.31363917,Pt1N1,1.192935054,22.67281254,,7.43410156,-11.62343098,520,2.70E-06
mp-13178,194,9.649604149,3.421649293,Al2N2,0.115330765,39.78348718,,7.95680894,-29.31835128,520,0
mp-13181,225,-0.173577892,6.455414031,La1F3,0.181105725,50.39192294,,4.18753486,-26.52732389,520,8.00E-07
mp-13190,225,-257.8575962,3.607251135,K1Rb2Ga1F6,0,181.2551361,,-2.69638095,-45.69619722,520,4.62E-05
mp-13200,186,2.163085591,9.527580099,Lu2Cu2Sn2,0,124.5190765,,6.41021234,-28.62921259,520,4.50E-07
mp-13202,186,0.538624878,6.897993506,Y2Cu2Sn2,0,130.55241,,6.3820986,-32.83849064,520,2.15E-06
mp-13203,186,2.202624409,6.499898188,Sc2Cu2Sn2,0,116.0923569,,7.0700861,-32.12557058,520,7.82E-05
mp-13208,140,3.207404865,6.979156209,Mg4Pt2,0,115.963417,,4.62489637,-22.70532299,520,3.35E-06
mp-13240,216,1.427534701,7.75251761,Sc1In1Cu4,0,88.66710252,,7.3183277,-27.03743327,520,3.00E-07
mp-13250,189,7.29353622,10.34038231,La3Sn3Pt3,0,218.0940087,,9.02275937,-54.76742184,520,2.92E-05
mp-13272,187,2.431439144,4.545635648,Ba1Al1Ge1,0,86.55825703,,3.48870722,-11.70512733,520,0.0002704
mp-13274,5,-25.06625904,2.324975781,Na4C1O4,0.131635811,119.9652871,,1.25041624,-47.14978156,520,0
mp-13275,189,5.671676692,3.048510131,Na3Sr3P3,0,231.3638181,,2.61447368,-32.44574576,520,8.25E-05
mp-13276,194,2.425447987,3.105522246,Sr2Li2P2,0,134.2481919,,2.68378373,-23.88952617,520,6.44E-05
mp-13277,194,4.737454211,3.738820055,Ba2Li2P2,0,155.6618307,,2.36910455,-23.94282751,520,3.14E-05
mp-13285,223,10.52049665,7.068818572,Na2Pd6O8,0,190.8634688,,3.17175357,-85.04052517,520,8.05E-06
mp-13286,186,3.446181347,4.254429551,Ca2Ge4,0.006907943,144.6935208,,3.76202562,-25.38532316,520,4.00E-07
mp-13287,129,4.678196998,6.120272303,Ba2Cu2Te2F2,0,188.5503787,,4.52675058,-37.43471335,520,0.00017645
mp-13288,194,11.77552888,3.480601648,Ba6Li2N2,0.02104022,413.0866331,,1.69128109,-34.39982767,520,0.0005549
mp-13302,186,5.826088703,11.69416957,Lu2Sn2Au2,0.062657835,139.3400012,,6.33844574,-28.12305307,520,4.15E-06
mp-13306,216,-2.003917808,8.549142214,Yb1Cu1Ge1,0.162609683,60.06238197,,2.7314377,-11.3993866,520,0.0001654
mp-13311,187,1.581766816,4.020471122,Sr1Al1Ge1,0,77.33468923,,3.84720542,-11.46614834,520,9.36E-05
mp-13313,166,2.638669094,6.354773057,Sc1Tl1Se2,0,106.4191931,,4.40573935,-20.69984129,520,1.30E-06
mp-13314,166,5.121454475,6.515129063,Sc1Tl1Te2,0,128.5940847,,5.53019673,-18.67965239,520,2.80E-06
mp-13322,225,2.181237773,9.086966518,Li1Ge1Rh2,0,52.15211884,,5.35567514,-23.85457122,520,0.0001074
mp-13334,161,5.638474963,6.556764238,Zn2Sn2O6,0.041167773,117.5700875,,4.11218728,-55.49040444,520,8.77E-05