material_id,spacegroup.number,delta_volume,density,full_formula,e_above_hull,structure.lattice.volume,band_gap.optimize_structure_gap,efermi,final_energy,encut,total_magnetization
mp-861651,225,1.577357908,8.136051959,Li2Pd1Pb1,0,66.84198422,,4.70210988,-14.22427422,520,4.24E-05
mp-861658,225,1.014608192,13.3261791,Li1Mn1Pt2,0,56.32835641,,5.29358874,-25.11683471,520,4.2659817
mp-861662,225,0.880118316,7.490031029,Ca1Zr1Rh2,0.028968755,74.73791434,,5.2155757,-27.55726835,520,0.000127
mp-861663,225,0.489996122,10.92433248,Li1Rh2Pb1,0,63.83426103,,6.30219807,-21.30584648,520,3.73E-05
mp-861666,225,0.450527591,11.75840153,Li1Ru2W1,0,55.48889094,,5.93393766,-33.6415525,520,8.30E-06
mp-861667,225,0.396373518,9.333450113,Li1Sb1Rh2,0,59.51392343,,7.85675465,-23.12524787,520,4.40E-05
mp-861672,225,1.017194706,9.950051795,Ti2Fe1Ir1,0,57.37524704,,7.53278031,-35.73226026,520,0.8269731
mp-861725,225,0.570932144,11.24338943,Li1Tl2Rh1,0.000882652,76.59410042,,6.50467865,-14.48043512,520,4.30E-06
mp-861733,225,0.671636946,8.574774046,Li1Te1Pd2,0.021589928,67.27170992,,6.21751522,-17.48927584,520,8.40E-06
mp-861736,225,0.429978536,8.744096084,Li1Sb1Pd2,0,64.86001055,,6.32718674,-18.88490879,520,7.00E-07
mp-861738,62,4.321947734,5.308866001,Ca4Mg4Pb4,0,339.7894571,,4.7452451,-34.55140544,520,3.08E-05
mp-861869,225,1.173383634,9.024775581,Ca1Lu1Rh2,0.016612089,77.43658687,,4.41767974,-23.91457531,520,4.48E-05
mp-861871,136,14.54636146,3.925632987,Se2I4,0.065424839,281.5218937,,1.15713617,-12.66268675,520,0.0001207
mp-861875,225,0.550725043,12.90312181,Li1Hf2Re1,0,70.79751971,,4.50988327,-35.09462964,520,0.0013947
mp-861877,225,0.880061687,10.69869525,Cd1Sn1Rh2,0,67.81599315,,7.41084542,-21.01684441,520,7.23E-05
mp-861878,225,3.65598413,9.978442922,Cd2Ag1Rh1,0,72.48863086,,3.66142614,-12.3397153,520,7.30E-06
mp-861881,225,0.214356661,11.6201677,Li1Ge1Au2,0,67.66586612,,4.10577365,-14.35630425,520,1.20E-06
mp-861882,225,0.309141248,14.66976611,Li1Ge1Ir2,0,52.5240155,,6.88261895,-25.84411025,520,0.0006348
mp-861889,194,8.173943071,4.77962961,Sc6Tc2,0.048266624,161.8058295,,5.06849847,-59.27382963,520,5.88E-05
mp-861891,136,36.76475405,3.223955683,Se2Br4,0.090610037,245.9609402,,-0.43194596,-13.71631426,520,4.84E-05
mp-861893,225,2.76815961,6.587822627,Li2La1Pb1,0,90.73912303,,6.25207261,-13.98284082,520,0.0006426
mp-861894,225,2.214199413,5.18191859,Li2La1Sn1,0,87.00100944,,6.3716903,-14.72937872,520,0.0008972
mp-861896,225,1.043785612,11.66594604,Li1Hg2Pd1,0,73.24013115,,3.14858494,-8.95916558,520,6.00E-06
mp-861900,225,0.80517615,12.11777893,Li1Ga1Au2,0,64.48747121,,4.34402692,-13.20674875,520,3.00E-06
mp-861901,225,0.821885338,6.659221625,Li1Ga1Cu2,0,50.80845956,,4.72137876,-13.93898327,520,2.56E-05
mp-861903,225,0.334357424,10.88385415,Li1Bi1Rh2,0,64.34330203,,6.84071189,-21.65661384,520,1.00E-05
mp-861905,225,0.598170663,10.05594451,Li1Bi1Pd2,0,70.80140935,,5.24584547,-17.93554755,520,1.59E-05
mp-861906,147,8.17325156,3.749543745,Ba1Na2Mg1P2O8,0,176.0625874,,2.0449373,-92.54631627,520,0.0003007
mp-861908,225,0.60304302,11.63241,Ta1Ti1Ru2,0,61.51927269,,7.85435567,-40.51320491,520,4.30E-05
mp-861909,225,0.90321445,10.38600884,Cd1Ga1Rh2,0,62.02554107,,4.95721272,-20.15012522,520,0.0004018
mp-861910,194,10.36830295,6.095376577,Sc6Hg2,0,182.7748162,,4.11362133,-40.39634423,520,0.975797
mp-861914,176,14.71901,4.341714468,Ba6Co2C6N6,0,419.9171259,,3.09801576,-142.8653169,520,0.00036915
mp-861916,225,1.400546116,9.974848357,La2Ir1Pd1,0.037404317,95.96279308,,8.4489723,-26.81644372,520,5.28E-05
mp-861918,225,1.659909241,7.407855354,Sc2Tl1Cd1,0,91.16692544,,5.19848013,-17.11507932,520,0.4436727
mp-861930,225,0.311058007,12.88767304,Li1Pd1Au2,0,65.36336839,,3.63554183,-15.0020265,520,3.90E-06
mp-861932,225,0.891797377,12.31435814,Li1Zn1Au2,0,62.87630633,,3.81392809,-11.4276319,520,4.20E-06
mp-861935,225,0.489904375,8.403267328,Ca1Sn1Rh2,0,72.04708,,7.2230908,-22.9465192,520,6.10E-06
mp-861936,221,1.378136428,9.120450719,Li1Pd3,0,59.39064988,,3.48349072,-18.53415964,520,9.10E-06
mp-861937,225,2.87423928,6.915215398,Ba2As1Au1,2.59E-05,131.2402516,,2.87380729,-15.56379222,520,4.93E-05
mp-861938,4,5.642404118,2.957812972,K2La2Si2S8,0,375.4125234,,,-76.73300867,520,0
mp-861940,225,4.0570322,4.511207506,Ca2Cd1Sn1,0,114.5785491,,4.23115688,-11.18610485,520,2.30E-06
mp-861943,194,1.809480692,16.19529506,B2Pt6,0.11447553,122.2312873,,5.84999073,-49.89459684,520,7.70E-06
mp-861945,167,11.22916475,5.600303217,Ag4F6,0.004516027,161.7346303,,-0.97391025,-33.31196989,520,0.99997385
mp-861950,225,1.820057573,6.217298326,Ca2Sb1Au1,0,106.5350323,,5.07621462,-15.07456765,520,0.0002283
mp-861951,225,0.490095457,11.26820412,Li1Ta1Rh2,0,58.01758769,,5.53431559,-30.69284311,520,2.74E-05
mp-861953,225,0.563226533,8.787097064,Al1Fe1Rh2,0,54.54519254,,7.45024526,-29.31235718,520,4.2794731
mp-861954,225,0.268482051,11.30085047,Li1Ta1Ru2,0,57.31056998,,5.55298346,-33.12523518,520,1.44E-05
mp-861960,225,3.257878369,10.28413357,Ca1In1Au2,0.010912081,88.61730586,,5.32625641,-13.68514115,520,1.32E-05
mp-861961,225,0.710035497,9.271396708,Ti1Zn1Rh2,0,57.14957922,,6.20727499,-26.98062803,520,4.30E-06
mp-861962,1,58.0927009,4.126609887,Ba1Sb2F12,0.003992453,244.991027,,,-72.25933181,520,0
mp-861963,225,0.646198426,11.62081436,Li1Lu2Os1,0,78.1777579,,3.58765595,-23.46127955,520,5.75E-05
mp-861964,225,0.253609184,11.58666935,Li1Lu2Ir1,0,78.69290777,,3.99755207,-22.47732941,520,0.0003739
mp-861978,225,0.780914627,17.42824469,Hf2Re1Ir1,0,70.06827561,,6.82501943,-44.19026703,520,2.74E-05
mp-861979,167,0.690066088,9.571728862,Ir4S6,0,166.7626047,,7.08260314,-63.76585668,520,6.15E-05
mp-862256,225,1.559434861,12.57033134,Cu2Pd1Au1,0,56.86615971,,5.7339741,-17.1119445,520,8.12E-05
mp-862257,225,0.607202463,7.544764752,Sc2Zn1Au1,0,77.5354817,,4.52930535,-19.58882793,520,1.80E-06
mp-862258,225,0.350331233,7.952235872,Sc2Zn1Pt1,0,73.16947076,,5.01122523,-23.33414037,520,8.10E-06
mp-862259,194,4.403917371,3.083513453,Sc6Al2,0,174.318707,,4.64105706,-47.63194771,520,0.9967425
mp-862260,194,6.658034264,6.031668225,Sc2Zn6,0,132.796973,,3.34350496,-22.72742124,520,2.45E-05
mp-862261,225,0.700957778,6.06123731,Sc2Zn1Ru1,0,70.24093447,,4.89021197,-25.17629434,520,0.0001482
mp-862262,225,3.056883704,10.41736631,La1Cd1Hg2,0,104.0086169,,4.88729999,-8.27390799,520,8.77E-05
mp-862264,225,0.754733356,5.925216789,Sc2Zn1Tc1,0.008541803,70.99303416,,4.83362743,-25.48080037,520,1.77E-05
mp-862287,225,0.128639844,8.161791175,Be1Al1Rh2,0,49.19584072,,7.03948299,-25.680373,520,0.0006315
mp-862290,225,1.572734522,8.524070938,Li1Fe1Rh2,0,52.32427179,,,-25.58384421,520,3.7729478
mp-862291,225,0.279697518,9.421295974,Be1Ga1Rh2,0,50.15234053,,5.9081289,-24.17376078,520,2.90E-05
mp-862293,225,1.993377235,9.513945064,La2Ag1Ir1,0.07836011,100.8644779,,7.85017171,-23.40494789,520,5.38E-05
mp-862297,225,0.547993422,7.593314802,Li1Al1Rh2,0,52.4259708,,5.55169351,-23.02898804,520,2.35E-05
mp-862300,225,0.540779341,8.224318133,Sc2Ga1Os1,0,70.63980132,,5.35067036,-29.04437179,520,6.90E-06
mp-862311,225,0.089489243,6.124341987,Sc2Ga1Ru1,0,70.68686547,,5.25497007,-27.37843147,520,0.0001067
mp-862312,225,0.456448354,7.893549075,Li1Be1Pd2,0,48.13044262,,4.05685652,-18.20671991,520,1.56E-05
mp-862316,225,0.297270047,14.13037987,Li1Be1Pt2,0,47.72554481,,5.59087349,-20.51737332,520,1.02E-05
mp-862318,225,0.346279133,3.917292598,Li1Al2Ni1,0,50.69733113,,7.14777238,-17.0496911,520,0.000235
mp-862321,225,0.41204977,8.371518491,Li1As1Pd2,0,58.45596268,,5.12780524,-19.00094679,520,0.0003473
mp-862324,225,0.124312167,6.011866468,Sc2Ga1Tc1,0.038735669,71.16137486,,5.18089989,-27.79706688,520,4.38E-05
mp-862329,136,4.006662421,4.609481065,Sc2I4,0.116863455,215.2566389,,4.99348384,-24.80782506,520,1.00182805
mp-862331,225,0.081901215,7.970785885,La2Cu1Ru1,0.057340032,92.16998384,,8.25433205,-23.94508797,520,0.0001373
mp-862332,194,-18.33456167,11.49868426,La2Hg6,0,213.9236989,,4.73222613,-15.18420298,520,0.00043425
mp-862334,225,1.589611751,9.438427999,Sc2Ir1Rh1,0.000216773,67.74057362,,6.38604464,-33.06242228,520,3.80E-05
mp-862335,225,0.477785987,9.085857447,Li1As1Rh2,0,52.57547198,,7.08097827,-23.46867379,520,3.39E-05
mp-862336,225,0.932346654,9.201806776,Sc2Ir1Pd1,0,70.11671804,,6.0896434,-30.66734447,520,2.38E-05
mp-862337,225,3.146022957,5.986708857,Sc2In1Ag1,0,86.70560655,,5.38030718,-19.74659725,520,8.54E-05
mp-862338,225,1.212356006,6.225314314,Sc2Cu1Ru1,0,67.89269862,,5.76628771,-27.90685525,520,1.52E-05
mp-862339,225,0.656691852,5.605867243,Sc2Ga1Ag1,0.00275737,79.23826865,,4.24385094,-20.3991662,520,3.23E-05
mp-862360,225,0.232847297,8.568915491,Sc2Ni1Ir1,0,66.04670209,,6.36369851,-30.49812632,520,5.07E-05
mp-862361,225,0.461649665,8.585716387,Sc2Ni1Os1,0,65.53315906,,5.74717911,-31.67188904,520,2.20E-06
mp-862362,225,1.894500748,9.240596009,Sc2Tc1Pt1,0.042493343,68.82451276,,5.97156254,-32.06984801,520,0.0001094
mp-862363,225,1.339849336,8.977607312,Sc2Pd1Pt1,0,72.39804929,,5.74856805,-28.26663495,520,0.0005881
mp-862364,225,1.968227168,11.46403085,Sc2Os1Pt1,0,68.83538989,,6.19162484,-33.34971509,520,4.17E-05
mp-862366,225,3.07719674,7.619465034,Sc2Tl1Ag1,0,87.64498518,,5.45246649,-19.0648371,520,1.08E-05
mp-862367,225,0.848085998,6.356177792,Sc2Ni1Ru1,0,65.22716487,,5.90601706,-30.04387934,520,3.60E-05
mp-862368,225,0.597258267,8.341666998,Sc2Ni1Pt1,0,68.41670546,,6.09731429,-28.0504243,520,2.76E-05
mp-862369,225,1.615722918,9.519982456,Sc2Ir1Ru1,0,66.84010294,,6.17543164,-34.11836825,520,8.55E-05
mp-862370,225,1.226180336,7.145983429,Sc2Pd1Ru1,0,69.10838015,,5.62369044,-30.27056154,520,2.32E-05
mp-862372,225,1.770450195,7.282056938,Sc2Ru1Rh1,0,67.0155945,,5.68739344,-32.54849301,520,9.96E-05
mp-862373,136,1.599495392,2.614188772,Sc2S4,0.285532146,138.5832711,,2.21778468,-36.38704992,520,0.64379465
mp-862374,225,1.47915586,10.25385969,Cd1In1Pd2,0,71.26601853,,5.91460728,-15.92280416,520,4.00E-07
mp-862375,225,2.183267691,8.443183602,Sc2Tc1Hg1,0.068727058,76.40748754,,5.14164385,-24.38406673,520,0.0002962
mp-862377,225,0.371469759,8.665113522,Li1Be2Ir1,0,41.61974258,,4.9307356,-19.76330497,520,7.40E-06
mp-862378,225,2.929180761,8.822525856,Sc2Tc1Au1,0.010032231,72.44020677,,5.65532291,-28.32231666,520,6.06E-05
mp-862379,225,1.936011065,6.685147454,Sc2Tc1Ag1,0.012459593,73.4694755,,4.93408692,-26.8265273,520,2.39E-05
mp-862423,225,1.088695722,7.02894759,Sc2Tc1Pd1,0.045257517,69.53380691,,5.41975652,-30.38492745,520,6.80E-06
mp-862424,225,0.566097498,6.216163653,Sc2Tc1Ni1,0.050916598,65.87625821,,5.61407345,-30.10640373,520,0.0001004
mp-862431,225,1.446751904,8.877307501,Sc2Ag1Os1,0,72.57896526,,5.19449105,-28.21809829,520,4.15E-05
mp-862432,225,1.194831652,8.825037464,Sc2Ag1Ir1,0.011868447,73.38272347,,5.5658535,-27.00928903,520,0.0001166
mp-862445,225,0.224526298,16.16904917,Ta1Al1Os2,0,60.42678144,,8.14946165,-40.25399529,520,7.33E-05
mp-862446,225,0.21764654,11.46112979,Ta1Al1Ru2,0,59.41266622,,8.04454348,-37.13535548,520,5.00E-07
mp-862473,225,1.46547693,6.811811661,Sc2Ag1Ru1,0,72.85171062,,5.15678037,-26.5276347,520,1.95E-05
mp-862485,225,0.521472206,10.36504036,Ga1Cu1Rh2,0,54.32256493,,5.98011409,-23.34043639,520,7.53E-05
mp-862536,225,1.237631909,9.33126066,La2Cu1Ir1,0.07288528,94.95183881,,8.46472309,-24.5592507,520,0.0004467
mp-862539,160,-50.54746067,1.572799117,B1H6C1N3F4,0,155.0770476,,-1.41787343,-87.4855479,520,0.0001267
mp-862543,225,0.761999905,4.909929366,Sc2Al1Tc1,0,72.67697587,,5.72566954,-28.24620923,520,9.28E-05
mp-862546,225,0.432065825,5.046349986,Sc2Al1Ru1,0.004677431,71.72246751,,5.85268682,-27.80580641,520,3.56E-05
mp-862553,225,0.271015981,5.063295604,Sc2Be1Ru1,0.028397123,65.58926847,,,-27.03599511,520,9.30E-06
mp-862555,225,1.611856339,3.595054558,Li1Y2Al1,0,97.79906359,,3.20892585,-19.56236883,520,0.000879
mp-862556,225,1.320327701,7.52562721,Sc1Si1Pd2,0.090277507,63.0800905,,6.71888787,-25.33174577,520,6.70E-06
mp-862559,225,10.30961843,7.665862023,La1Cd3,0.003062602,103.1386314,,4.58679695,-8.9826725,520,0.0005466
mp-862561,225,0.661323283,9.364528205,Sc1Sb1Ru2,0,65.40635349,,9.31341988,-31.43087706,520,0.0001517
mp-862563,225,0.412326526,4.918979348,Sc2Be1Tc1,0.049921329,66.47720527,,4.86272428,-27.27185453,520,2.13E-05
mp-862586,194,2.146512712,18.44516743,Re6Pd2,0,119.7415581,,7.27902574,-85.47044963,520,0.00017675
mp-862600,225,0.404621281,11.80607937,Be2Pt1Rh1,0,44.44772409,,6.47782892,-23.97452317,520,1.20E-06
mp-862601,136,1.483647892,6.891490822,Rh2I4,0.149124571,171.9042422,,5.31403358,-21.41334971,520,1.06E-05
mp-862602,225,1.330082423,5.88179161,Sc1Al1Co2,0,53.58515026,,6.28490144,-26.33675323,520,8.20E-06
mp-862604,194,1.92726944,18.3469664,Re6Ni2,0,111.7432319,,7.68428404,-87.10010051,520,9.30E-06
mp-862609,225,1.257015277,11.3971235,Sc1Re1Tc2,0.048269531,62.23681718,,7.54888785,-40.31384761,520,0.0006364
mp-862610,225,0.504182778,15.39349544,Li1Hf1Ir2,0,61.47291782,,5.8736809,-32.27991358,520,1.47E-05
mp-862620,194,3.219669422,14.63181664,Ir2Ru6,0,112.4502712,,8.78947686,-73.78612432,520,7.76E-05
mp-862622,225,0.188072252,12.19253493,Be1Ru2W1,0,53.79520686,,7.17713824,-36.06363016,520,7.10E-06
mp-862623,225,0.96324904,9.070292843,Sc1Sn1Rh2,0,67.64178923,,,-28.56553061,520,0.0003451
mp-862629,225,1.329326367,10.7697508,Sc1Rh2Pb1,0,70.61184149,,7.70595159,-27.10700018,520,0.0022231
mp-862630,194,1.978603606,14.35274009,Re2Ru6,0,113.2461161,,8.0261515,-81.20558437,520,7.74E-05
mp-862631,225,3.251470103,6.830611387,Ba2Sb1Au1,0,144.2523289,,3.30764151,-14.98709166,520,1.88E-05
mp-862632,225,1.996170245,1.724525521,Li1Ca2Al1,0,109.8457893,,2.43046499,-10.23900053,520,4.00E-06
mp-862635,225,1.286587404,9.113780852,Sc1Sb1Rh2,0,67.87473727,,8.27774434,-28.32301406,520,5.63E-05
mp-862654,225,0,10.98927025,La1Ga1Au2,0.044768108,91.0503656,,5.83652006,-17.04544133,520,0.0002155
mp-862655,194,1.67056538,13.9963761,Ru6W2,0,115.5678489,,7.69082737,-82.10128329,520,4.24E-05
mp-862662,225,2.084681742,5.522388248,La1Mg1Zn2,0,88.41206582,,5.01872625,-10.39255886,520,0.0009149
mp-862663,225,4.937307171,12.299595,La1Pb1Au2,0,99.91085067,,7.06209904,-17.82657565,520,0.0004086
mp-862664,123,4.273227289,4.627599382,Rb2Zr2O5,0.091538394,155.5116046,,1.81854054,-67.48405844,520,0.00067
mp-862669,225,0.682929476,6.269389853,Be1Fe2Si1,0,39.40858049,,7.61288334,-27.67284588,520,1.1725992
mp-862670,176,11.69362038,3.715102124,Sr6Co2C6N6,0,357.4377587,,3.05337915,-141.913232,520,0.0002158
mp-862672,225,1.134553213,5.538815751,Li1Y2Rh1,0,86.24003627,,3.70042535,-24.09680774,520,2.33E-05
mp-862673,225,0.10880975,5.652019252,Li1Y2Ru1,0,83.97348464,,3.74973228,-25.16993322,520,1.50E-05
mp-862682,123,3.645985295,6.185062303,Ba2Ga2O5,0.176454949,132.6530466,,2.73955167,-53.96733122,520,0.0002819
mp-862684,225,0.655610027,13.17532125,Li1Hf2Os1,0,69.84189242,,4.95522441,-34.64421542,520,3.83E-05
mp-862689,194,0,1.844511669,Cs6Rb2,0.044055187,871.7827125,,0.41267155,-7.05296377,520,0.000258
mp-862693,194,8.419703571,4.49229478,Ba2Na2H6Pd2,0,199.4294728,,,-42.10994939,520,0
mp-862699,225,1.087379318,15.41153389,Sc1Ta1Os2,0,65.33358434,,6.95750955,-42.76249932,520,1.02E-05
mp-862700,225,0.321871968,13.88221296,Al1V1Os2,0,54.83008601,,8.3334068,-37.17305891,520,0.0002851
mp-862702,225,2.945502268,7.809967934,Sc2Ag1Hg1,0,84.70060092,,4.16730636,-17.25760339,520,1.04E-05
mp-862703,225,2.75597829,8.166159519,Sc2Ag1Au1,0,80.26932698,,4.68735777,-20.98851682,520,0.0002537
mp-862704,225,0.875916641,9.77980594,Sc1Zn2Pt1,0.048910589,62.96894284,,4.77768323,-17.59143587,520,7.94E-05
mp-862705,225,0.208543404,14.26110513,Al1Zn1Ir2,0,55.52064546,,7.75695707,-25.09499405,520,0.0006016
mp-862706,225,0.12279534,7.955385036,Be1Co2Ge1,0,41.64580049,,6.41527228,-23.79917703,520,1.60E-05
mp-862710,225,1.099164647,6.504059291,Sc2Cd1Tc1,0.053305286,76.67485052,,4.74878161,-24.78098805,520,0.0001331
mp-862711,225,2.186827811,5.855768113,Sc2Cd1In1,0,89.93264577,,5.21494604,-17.8350289,520,0.0052458
mp-862712,225,0.388889674,8.770541433,Sc2Co1Ir1,0,64.57375545,,6.00173528,-31.52107966,520,0.0013129
mp-862713,225,0.141725201,9.441874375,Be1Ge1Ru2,0,49.91042866,,6.84044394,-28.02379112,520,2.55E-05
mp-862715,225,0.19153713,7.836062232,Al2Pd1Ru1,0,55.40449131,,8.69059359,-25.18604852,520,2.54E-05
mp-862717,225,0.439854491,11.31264939,Li1Al1Au2,0,62.80324173,,5.58732323,-14.41314135,520,2.49E-05
mp-862719,225,1.48522771,7.391109864,Li1Y2Os1,0,84.24626669,,3.79755827,-26.90771805,520,0.0001898
mp-862720,225,5.081029729,4.916341219,Sr2Cd1In1,0,135.9375717,,3.00608249,-8.59333319,520,0.0002937
mp-862721,225,4.534389751,5.969013744,Sr2Cd1Pb1,0,137.6641837,,3.43847347,-10.00597065,520,0
mp-862723,225,1.158686937,8.808555459,Sc1Tc2Mo1,0.059520401,63.50971131,,7.19145824,-38.60822728,520,4.31E-05
mp-862737,225,0.61983416,10.61494527,Li1Hg1Pd2,0,65.76034439,,3.2367194,-13.98696245,520,0
mp-862740,225,4.48370419,5.985924674,Sr2Tl1Cd1,0,136.4938934,,3.08670008,-8.20259409,520,7.00E-06
mp-862743,225,2.567748667,11.28478595,La1Cd1Au2,0,94.9474956,,5.64272581,-15.0576658,520,0.0001661
mp-862745,225,1.636304896,5.65780102,Sr2Li1Pt1,0.120138519,110.7255732,,2.87927046,-12.92505115,520,0.0002267
mp-862746,225,3.044813926,4.617719366,Sr2Li1Tl1,0,139.0091213,,2.53321229,-8.61451672,520,0.0001664
mp-862747,225,3.049526203,8.815812978,Sr2Pt1Au1,0.054255055,106.8543694,,3.76522654,-15.70262848,520,0.0018681
mp-862764,225,1.715872034,3.434722542,Li1Ca2Rh1,0,91.85794924,,2.91530575,-14.22912494,520,1.91E-05
mp-862769,194,9.664220321,4.166014171,Rb2Ge6,0.118052633,241.8557717,,1.97465699,-29.6745461,520,2.80E-05
mp-862770,194,1.694298807,13.92446559,Tc6Ir2,0,115.9660032,,8.67343669,-81.62704518,520,4.30E-06
mp-862773,136,27.53466518,3.861753817,Te2I4,0.070017637,328.0087054,,,-12.58125437,520,0.01691595
mp-862774,225,0.401213776,13.23523469,Li1In1Pt2,0,64.22815984,,6.73521372,-18.99376107,520,1.30E-06
mp-862775,225,0.468770002,8.879828337,Li1In1Rh2,0.005995673,61.25600098,,5.75718654,-20.57506524,520,0.0006679
mp-862778,225,0.085953829,8.201312434,Al1Si1Ru2,0,52.07731474,,9.59869743,-30.55897595,520,2.27E-05
mp-862779,194,2.243204073,13.85481631,Tc6Os2,0,116.0726785,,8.31193731,-85.09301107,520,0.00069335
mp-862781,225,0.372519134,8.726915581,Al1Cr1Ru2,0,53.49046973,,8.05967878,-33.35053461,520,1.0668901
mp-862783,194,21.12639007,7.443493116,K2Tl6,0.01801464,291.0148724,,3.5367676,-17.01518215,520,7.85E-06
mp-862791,225,-0.001386623,15.14843689,Ga1Cu1Pt2,0.048900033,57.37803708,,6.99912369,-20.96648487,520,4.55E-05
mp-862795,225,6.699922865,6.076924212,Ca1La1Ag2,0,107.858471,,4.79843219,-13.88257796,520,0.0007326
mp-862815,225,0.156496434,10.33139499,Li1Sc1Au2,0,71.65713863,,4.2127348,-17.54666746,520,7.00E-07
mp-862845,136,1.027953396,7.256300173,Ir2Cl4,0.475639776,120.4266647,,5.22568036,-24.83618413,520,1.10E-05
mp-862846,225,5.495809352,8.368568781,Ca1La1Hg2,0,115.1193372,,4.73528881,-9.80547805,520,0.0013979
mp-862850,12,1.230085311,4.847204595,K2P2Au2Se6,0,345.261498,,,-46.14415207,520,0
mp-862868,136,3.941135656,5.13704888,Pb2Br4,0,237.2689559,,0.27353879,-19.5310246,520,0.0013916
mp-862870,221,1.304839876,4.436934254,Li1Tc1O3,0.060737221,57.23806074,,3.78001021,-34.62238479,520,9.10E-06
mp-862887,225,0.919230567,6.819598588,Li1Sc2Os1,0,69.90326935,,4.39930483,-27.12445376,520,9.00E-06
mp-862911,225,0.355935311,7.508749683,Ti2Co1Tc1,0,55.87664514,,7.05535774,-35.29806962,520,0.0050026
mp-862947,225,4.625871548,7.562821999,Ba2Bi1Au1,0,149.4368742,,3.17955543,-14.46239322,520,1.20E-06
mp-862962,225,1.178913501,4.972475357,Ca1La1Zn2,0,103.4570106,,4.36997777,-10.72137117,520,0.0002547
mp-862982,167,8.178858241,5.516715861,Ag4Br6,0.019987741,274.1811861,,0.51294551,-23.87359639,520,0.00296895
mp-863062,159,0.169911489,5.118309442,Li2Si2Bi2O8,0.061096308,199.8525109,,2.15426227,-91.30876269,520,7.24E-05
mp-863076,5,-0.07292461,6.185646096,Nb1Bi1O4,0.063739314,98.22180055,,2.19268428,-45.75895198,520,0.0001546
mp-863250,225,0.062695586,11.36828336,Ta1Mn2Ge1,0.012709535,53.09034728,,6.58308858,-35.60835761,520,0.9658947