material_id,spacegroup.number,delta_volume,density,full_formula,e_above_hull,structure.lattice.volume,band_gap.optimize_structure_gap,efermi,final_energy,encut,total_magnetization
mp-867258,225,0.879725183,8.491448879,Li1Zn1Pd2,0,55.77012069,,3.44442219,-15.87224754,520,1.85E-05
mp-867259,136,1.713796542,4.782099281,Rh2Cl4,0.193147861,120.7088203,,3.95205768,-24.23868723,520,2.47E-05
mp-867262,225,1.30749822,9.058681536,Sc1Tc3,0.118096534,62.13371366,,7.68281772,-37.87005655,520,6.95E-05
mp-867263,225,2.434713809,10.64043392,Sc1Cd1Hg2,0,87.16645959,,3.96942871,-8.90142,520,0.0001017
mp-867266,225,6.059793351,7.309192162,Ca1Mg1Tl2,0,107.492506,,5.34638512,-9.43778897,520,0
mp-867270,225,0.544371253,11.14544873,Be2Co1Pt1,0,40.53095036,,6.19565435,-23.0028163,520,1.65E-05
mp-867271,225,0.759626345,6.457582638,Be2Co1Ni1,0,34.88204888,,5.94627625,-22.01987763,520,0.0001237
mp-867272,225,1.729795015,5.265676514,Li1Al1Cu2,0,50.77617788,,5.86748945,-14.74406564,520,6.85E-05
mp-867273,225,0.435935013,10.92222652,Be2Cu1Ir1,0,41.6247187,,7.308978,-22.01692723,520,1.20E-05
mp-867274,225,0.560231289,11.16765114,Be2Co1Ir1,0,40.02407113,,6.40283636,-25.2607985,520,0.6373463
mp-867275,225,0.412302006,14.45292894,Be1V1Os2,0,50.6004088,,6.8694861,-36.27090764,520,0.00014
mp-867280,225,0.101798734,15.01007935,Be2Ir1Pt1,0,44.84044189,,7.32541082,-25.22545326,520,1.57E-05
mp-867281,194,2.658061246,13.81249167,Tc6Pt2,0,117.5954484,,8.52970264,-76.41441033,520,2.20E-05
mp-867287,225,0.732706542,11.73464018,Li1In1Au2,0,72.97428082,,5.50569935,-12.85087901,520,6.50E-06
mp-867292,225,0.359506908,10.23309756,Ga2Ru1Rh1,0,55.72748669,,6.35164721,-24.82279038,520,1.85E-05
mp-867306,225,0.392530418,12.90732197,Al1Cu1Au2,0,62.326319,,6.97218857,-15.41893716,520,9.50E-06
mp-867307,225,0.202527328,11.335802,Be2Ru1Au1,0,46.29857847,,6.29995478,-21.05422527,520,0.0003999
mp-867308,225,0.842515256,10.27693715,In1Cu1Pd2,0.003570037,63.2104201,,6.95694899,-18.7447392,520,2.20E-06
mp-867317,194,2.00829884,7.606494601,Cu6Si2,0.011505095,95.49705344,,8.6262887,-35.88450961,520,8.50E-07
mp-867319,225,0.446918933,9.846398114,Al2Co1Ir1,0,51.45561801,,9.27968377,-26.59357736,520,0.0029539
mp-867326,225,0.116323463,7.905751665,Al2Ru1Rh1,0,54.17790686,,8.3479112,-27.82354225,520,2.41E-05
mp-867327,225,0.595237036,13.45156167,Hf2Tc1Ru1,0,68.64204737,,6.15129201,-42.22708745,520,2.53E-05
mp-867333,225,6.350490099,6.184438202,Ba2Cd1Pb1,0,159.5618228,,3.00267774,-10.43535552,520,1.54E-05
mp-867342,225,2.7598646,2.570497222,Li3Ge1,0.007274086,60.37701927,,1.12229589,-11.65827707,520,4.70E-06
mp-867343,225,10.28851309,2.969004288,Li3Cd1,0.002271273,74.51665171,,0.70611444,-7.3455744,520,5.88E-05
mp-867350,225,2.211529189,3.111740649,Ca2Mg1In1,0,117.015324,,3.81060909,-9.59905758,520,2.97E-05
mp-867351,194,0.545904782,11.14052006,Tc4,0.009512172,58.4291667,,8.33836993,-41.39585875,520,1.00E-06
mp-867352,194,3.840633079,11.86176856,Tc2Rh6,0,113.8731755,,7.60189523,-65.48045298,520,4.97E-05
mp-867356,194,1.537970311,11.8520025,Tc2Ru6,0,112.4240175,,8.25913153,-76.85934553,520,0.0001177
mp-867357,194,0.927907777,10.76359842,Tc6Ni2,0,108.8225586,,8.5373103,-74.56892736,520,3.25E-06
mp-867369,38,32.87351351,4.300971645,Tc2F6,0.468499551,119.6825358,,1.2431345,-43.0653552,520,6.0281908
mp-867475,225,-0.027212259,12.79499327,Ta1Sn1Ru2,0,65.12351767,,9.69869176,-35.46720535,520,0.3224636
mp-867507,225,-0.451738731,11.79945339,Ta1Ga1Fe2,0,50.99510697,,6.30226967,-33.04539549,520,2.80E-06
mp-867613,1,-1.26737088,3.8803645,Li3Ti12O24,0.030745695,419.0381473,,5.07785426,-332.7057293,520,1.062389833
mp-867680,6,4.020808673,5.632576274,Na4Tl4O4,0.054174282,286.9944174,,2.48657784,-45.184241,520,0.001041625
mp-867714,5,-1.763963707,2.565671364,Li2Fe1P2S6,0.06959756,209.7391744,,4.23752284,-54.10739685,520,4.000416
mp-867748,225,0.421227657,9.129830141,Sc1Sn1Ru2,0,66.53300101,,7.78685839,-30.91375477,520,2.20E-05
mp-867749,148,-0.411836273,6.301358755,Ca2Bi2O6,0.020737578,156.5611801,,3.86273427,-59.78373011,520,0.0001613
mp-867750,160,-0.21166667,3.498461657,Ti3P1O7,0.136228416,136.0202434,,5.24315324,-92.76356075,520,2.8909999
mp-867751,225,3.169235444,4.703307972,Ca2Ag1Sn1,0,108.2948676,,4.0777163,-12.99084802,520,4.17E-05
mp-867756,225,1.171895129,7.788821515,Sc2Cu1Au1,0,74.70878413,,5.26590915,-22.20270508,520,7.16E-05
mp-867761,225,0.646514653,6.491812892,Sc2Co1Ru1,0,63.9256942,,5.23424722,-30.91266225,520,0.0001215
mp-867767,225,0.204076345,8.508802179,Be1Si1Rh2,0,47.40495091,,8.9095954,-27.13947803,520,8.60E-05
mp-867768,225,0.424493106,12.72568219,Sc1Zn1Pt2,0,65.31315403,,5.76623534,-23.41643794,520,8.80E-06
mp-867769,225,0.436955395,8.579740284,Sc1Zn1Rh2,0,61.19327952,,5.01329452,-25.39893836,520,2.80E-06
mp-867770,194,16.42492632,9.622080228,Ba2Hg6,0,255.1006422,,2.51522333,-9.10802145,520,3.99E-05
mp-867775,225,-0.196706873,6.966923493,Al2Ni1Ru1,0,50.9408722,,9.19431128,-25.32143829,520,7.10E-06
mp-867779,225,0.78218549,13.42238573,Ta2Cr1Fe1,0.017393022,58.11309632,,6.30117906,-42.32580428,520,4.92E-05
mp-867781,225,0.249123603,12.59680503,Ta1Ga1Ru2,0,59.69054391,,7.41402953,-35.73956004,520,0
mp-867786,225,1.241238481,13.10171481,Sc1Nb1Os2,0,65.69326334,,6.71237097,-40.6062862,520,7.90E-06
mp-867787,225,8.109276731,8.098223407,Rb1Tl2Bi1,0.007984954,144.1940498,,4.05319681,-10.25693709,520,1.92E-05
mp-867794,225,0.075369337,8.472755086,Sc2Cu1Ir1,0,67.74733066,,6.14958852,-28.41740368,520,9.94E-05
mp-867795,225,1.172615795,8.355339563,Sc1Nb1Tc2,0.000828173,66.35174617,,6.21912155,-38.17529516,520,4.43E-05
mp-867797,194,57.46673244,7.150005623,Rb2Tl6,0.008945793,324.4981965,,3.24689428,-16.67502577,520,0.00031725
mp-867798,225,2.23482896,8.077569133,La2Ag1Ru1,0.060336944,100.0630185,,7.65258756,-22.80069683,520,4.60E-05
mp-867799,225,3.060462006,7.260611488,Ca2Bi1Au1,0,111.1742391,,4.59808935,-14.4850572,520,0
mp-867801,225,5.165297461,7.028083012,La2Ag1Sn1,0.023518781,119.1730173,,7.31163816,-18.90663435,520,0.1638336
mp-867802,225,0.590392032,8.432015719,Sc2Cu1Os1,0,67.68334741,,5.71051011,-29.61389776,520,0.0002244
mp-867803,225,7.616458154,2.834378115,Li1Ca2Cd1,0,116.8830725,,1.88359887,-7.60483725,520,0.000125
mp-867805,225,1.9312815,2.481137548,Li1Ca2Ga1,0,104.9541701,,2.09035954,-10.03350872,520,4.83E-05
mp-867806,225,1.382220029,8.077236608,Li1La2Ir1,0.087505197,98.05649929,,7.52425162,-22.12656357,520,0.0012219
mp-867807,225,1.04871873,8.385321925,Li1Y1Tl2,0,99.92822474,,5.09570113,-14.40389022,520,6.84E-05
mp-867810,225,0.794352278,9.124715299,Li1Y1Hg2,0,90.45021804,,2.84205669,-10.78485774,520,2.97E-05
mp-867811,225,0.577336625,12.16516416,Ta1Mn1Ru2,0,59.79032747,,6.76684416,-40.59635474,520,4.08915
mp-867812,225,0.867361359,5.466501465,Li1Al1Ni2,0.002703743,45.96268115,,6.57574535,-18.77585266,520,0.0049784
mp-867813,225,1.598129245,8.206042921,Li1La2Os1,0,96.11527288,,7.37862597,-23.23372663,520,0.000342
mp-867814,225,5.923636026,12.40020192,La1Tl1Au2,0.002089354,98.72305045,,6.68977573,-16.28094937,520,0.0001652
mp-867817,225,6.853929495,9.470209919,La1Tl1Ag2,0.002317277,98.02138782,,6.12472202,-14.06307435,520,0.0001021
mp-867820,225,0.489418683,7.418090184,Li1Al1Pd2,0,55.23777937,,5.5418266,-19.26740235,520,4.30E-06
mp-867822,225,0.588902555,9.938991514,Li1Y1Au2,0.00708142,81.82910609,,3.69399038,-17.76764945,520,6.06E-05
mp-867828,225,0.169449432,9.103520171,Be1Nb1Ru2,0,55.46218421,,6.08401246,-33.47537625,520,4.32E-05
mp-867829,225,0.916727182,8.408844544,Li1V1Rh2,0,52.07295117,,5.60625253,-27.38449334,520,1.31E-05
mp-867833,225,6.008764962,9.04747533,La1Mg1Hg2,0,103.5860696,,5.14813856,-9.09758361,520,0.0003057
mp-867834,225,0.44906401,14.65485182,Li1Hf1Pt2,0,65.22103548,,5.47162917,-27.77242559,520,0.0003504
mp-867836,225,1.059646885,11.01774017,La1Zn1Au2,0.043387865,90.16490617,,5.70325117,-15.10804311,520,8.20E-05
mp-867840,225,0.736908739,9.086506777,Be1Fe1Rh2,0.008268383,49.46401231,,5.7382803,-28.20504336,520,4.0937839
mp-867841,187,0.299265218,9.368141535,Ga1Tc1,0,29.72954544,,6.42710523,-13.58851208,520,4.85E-05
mp-867842,225,1.358560182,8.996425769,Sc1In1Rh2,0,67.4788004,,7.49940204,-27.14291497,520,0.0003414
mp-867846,225,0.989640778,15.7107562,Ta1Ti1Re2,0,63.54652917,,6.56086738,-46.44572007,520,2.45E-05
mp-867847,225,0.985987137,7.57567154,La2Zn1Ru1,0.058778329,97.38553032,,7.43470011,-21.33420884,520,0.0008781
mp-867848,225,7.784333476,6.195302031,La1Mg1Cd2,0,104.0051094,,4.692169,-9.7190259,520,0.000474
mp-867849,225,3.707548767,5.681053896,Ca2Tl1Cd1,0,116.0262659,,3.69338849,-8.94386924,520,8.55E-05
mp-867850,225,0.749018908,8.183545048,Sc1Mn1Rh2,0,62.03118732,,5.67302421,-32.70073889,520,4.3557049
mp-867851,51,19.30504727,8.499876892,Rb4Tl2Au6,0,377.5216367,,2.61830812,-31.5810215,520,3.50E-07
mp-867854,225,0.771561566,4.641242367,Ca2Zn1Rh1,0.011679135,88.89752633,,3.4132605,-13.77142858,520,2.47E-05
mp-867865,194,4.302996832,14.30794494,Re2Rh6,0,114.8788029,,7.4336075,-69.65696608,520,3.46E-05
mp-867872,225,4.944237654,7.618426345,Li1Cd1Ag2,0,73.03704792,,2.37533166,-9.2023907,520,3.30E-05
mp-867874,225,0.572257574,8.766725114,Be1V1Ru2,0,49.64416991,,6.72292466,-32.78214477,520,3.00E-05
mp-867877,225,2.819493236,11.82020711,Li1Cd1Au2,0,72.10787442,,3.32685751,-10.8582844,520,5.74E-05
mp-867878,225,0.146110486,6.315470177,Al1Fe2Si1,0,43.84575733,,9.00595188,-27.93156701,520,0.0753541
mp-867880,225,4.709534528,7.864174844,La2Tl1Cd1,0,125.5522968,,6.53895065,-14.6856832,520,0.6106817
mp-867881,225,1.700490683,10.90765164,Sc1Tl1Rh2,0,69.29032216,,7.3297309,-25.74881518,520,3.09E-05
mp-867883,221,3.328328898,7.855351488,La3Pb1,0,131.8893952,,8.46887726,-20.03697256,520,0.0285689
mp-867896,225,2.980261026,6.571093369,Sc1Zn1Cu2,0,60.00621975,,4.98591583,-16.80847756,520,0.0002699
mp-867897,225,0.97210048,11.0010779,Sc1Ta1Ru2,0,64.61034402,,6.87724245,-39.23779296,520,4.21E-05
mp-867901,225,1.178004126,10.60438167,Sc1Ta1Tc2,0.041485881,66.0658716,,6.39695339,-40.21048152,520,0.0008577
mp-867902,225,0.402824644,8.16585304,Li1Si1Rh2,0,48.97468386,,6.92463399,-25.40108048,520,0.0001781
mp-867903,225,0.742658306,12.31888949,Li1Lu1Au2,0,77.6211761,,3.73943343,-15.90977145,520,0.022268
mp-867904,225,0.126067917,9.159916479,Al1Ge1Ru2,0.002221315,54.70429963,,8.02958072,-28.8784616,520,1.30E-06
mp-867905,225,1.776242764,6.605521302,Li1La2Ru1,0.079451033,96.99043642,,7.24383827,-21.5448976,520,0.0009171
mp-867908,225,3.203199051,12.17826587,La1Bi1Au2,0.010749011,101.1490007,,6.9241622,-18.09021263,520,3.60E-05
mp-867909,225,1.133406208,8.934657863,Sc1Cd1Rh2,0,67.4979513,,4.74046009,-24.41271446,520,3.45E-05
mp-867910,225,4.442403047,11.48931466,La1Ag1Au2,0.017300307,92.60070761,,5.73757852,-16.68463294,520,0.000117
mp-867911,225,1.854520427,8.625033982,Sc1Cd1Pd2,0,71.27427341,,4.49763381,-20.5113796,520,1.26E-05
mp-867912,225,5.768472937,6.384052403,Ba2Sn1Hg1,0,154.4918091,,3.18759303,-10.69262779,520,6.27E-05
mp-867914,225,6.461164981,6.540105932,La1Mg1Ag2,0,96.21496629,,4.9956779,-13.33460816,520,0.0009309
mp-867915,225,1.136449414,7.175315989,Sc1Ga1Co2,0,53.81652225,,5.39026046,-25.32788983,520,1.31E-05
mp-867916,225,0.179464045,13.45359319,Sc1Ga1Ir2,0,61.60409816,,,-30.25664226,520,0
mp-867917,225,0.343225294,10.49301791,Cu1Ge1Rh2,0,54.12164307,,6.7573375,-24.93162226,520,0.0002531
mp-867922,225,0.642623562,7.59006337,Sc1Al1Rh2,0,60.76525624,,7.13344751,-29.17566,520,7.95E-05
mp-867923,225,0.325409092,12.66603785,Sc1Ga1Pt2,0.021592377,66.18628621,,6.32209126,-25.32621515,520,4.27E-05
mp-867924,225,2.329317769,8.580618832,Li1Cd1Pd2,0,64.28648044,,3.00522511,-14.97354478,520,2.90E-06
mp-867926,225,0.847911927,8.630367149,Li1In1Pd2,0,64.37903425,,5.57090334,-17.378941,520,5.34E-05
mp-867928,225,0.55665792,8.69810241,Sc1Ga1Rh2,0,61.18415095,,6.17269933,-27.98491357,520,9.00E-07
mp-867958,225,0.435062792,12.73522685,Ta1In1Ru2,0,64.92166663,,8.87200254,-34.46814248,520,0.0005285
mp-867979,225,6.1609233,10.17324971,La1In1Hg2,0,106.8972856,,6.17446264,-10.1569817,520,5.70E-06
mp-868003,225,3.969396961,11.28175933,La1In1Au2,0,95.32724915,,7.04827571,-17.05965701,520,0.0001181
mp-868354,8,6.821420438,3.678184382,Li3Mn1V3O8,0.112117317,160.980578,,3.3065112,-104.6692559,520,8.9999995
mp-868574,1,2.046972415,3.172677078,Li1V1Cr1P2O8F2,0.005987383,176.8097352,,,-105.5250836,520,4.0000001
mp-868632,12,5.731433409,3.768231907,Mn2O2F2,0.045421652,79.26369221,,0.1908477,-40.38554541,520,4.0000049
mp-868760,12,3.630868463,3.904715473,Li3Ti2V1O6,0.091738323,112.0551731,,2.6257446,-87.67690589,520,3.9793922
mp-924128,216,-5.541489066,10.34045498,Hf1Ni1Sn1,0,57.15172941,,7.07429687,-21.63816598,520,8.80E-05
mp-924129,216,-5.874677905,7.623582324,Zr1Ni1Sn1,0,58.51137509,,6.65087643,-20.3878296,520,2.47E-05
mp-924130,216,-10.97329601,7.230097876,Ti1Ni1Sn1,0,51.73792944,,7.59383636,-19.27409323,520,0
mp-937761,146,2.776916126,2.771156583,Li7Zr1O6,0.07264093,141.3010712,,-0.15096037,-80.49445128,520,1.0936671
mp-945184,10,0.876350192,5.983440363,Y2Cu2Te4,0.006486872,226.2650818,,5.18981006,-40.8995151,520,5.00E-05
mp-949029,223,-1115.366131,1.861139433,Cs8,0.050999333,948.6433423,,0.4634316,-6.75512577,520,3.16E-05
mp-950217,74,27.73765369,4.459019127,Bi2I8,0.123422993,533.7225009,,0.7685183,-22.57887643,520,0.9989755
mp-952566,186,-30.92461756,4.44597915,Na2Sn2Sb2,0,196.8003976,,4.4245905,-20.33088498,520,1.50E-06
mp-956096,194,-0.571184174,11.31387507,Hf4Fe8,0.014810177,170.3590381,,5.52205127,-111.5318582,520,3.07605595
mp-961645,216,-0.211586261,3.47832586,Li1Al1Ge1,0.34562497,50.87253544,,3.7891745,-10.12508911,520,4.61E-05
mp-961646,216,3.089034784,10.34058927,Ti1Te1Os1,0.249217511,58.72529402,,7.67843667,-23.2683152,520,1.00E-07
mp-961647,216,12.69754712,3.981775862,Ca1Ag1P1,0.683851702,74.61584785,,2.14144243,-10.48075558,520,1.25E-05
mp-961648,216,-3.095156768,3.448683226,K1Ba1P1,0.417517075,99.86253209,,1.96432684,-9.18418518,520,0.0002124
mp-961650,216,5.379430854,4.900113711,Al1V1Ni1,0.818736003,46.29625825,,5.60803525,-17.47844439,520,0.0006398
mp-961651,216,3.042926543,7.495198462,Zr1Fe1Se1,0.36170687,50.0760561,,6.11850095,-22.11080511,520,0.0001225
mp-961652,216,4.47209873,7.564336349,Zr1Fe1Sb1,0.040141422,59.01390803,,6.43083352,-22.44559248,520,1.0119857
mp-961655,216,16.82242717,5.383966248,Y1Cd1Ga1,0.543086372,83.59492455,,1.82547134,-10.29038821,520,0.0006429
mp-961656,216,-15.27857544,7.844460644,V1Fe1Te1,0.162339624,49.6156398,,8.74144743,-20.92645613,520,1.0096639
mp-961657,216,3.173730569,5.571296032,Y1Ni1P1,0.300164844,53.22414321,,5.8011533,-20.41870729,520,3.03E-05
mp-961658,216,3.7114429,7.123876855,V1Fe1Se1,0.309153725,43.29655342,,7.44757934,-21.51011121,520,1.0026424
mp-961659,216,3.109493868,5.951365327,Ti1Si1Pd1,0.197536597,50.88524052,,5.91056103,-20.45398677,520,0.000117
mp-961660,216,2.992705606,6.838007742,Ti1Fe1Se1,0.195036018,44.35999474,,6.85875851,-21.60274384,520,4.99E-05
mp-961661,216,3.145721757,6.55924071,Zr1Si1Pd1,0.246774032,57.14573741,,5.15294345,-21.43197162,520,3.67E-05
mp-961662,216,10.80921907,6.254873819,Zr1Ni1Ge1,0.829645033,59.08436558,,3.5996665,-18.81866461,520,0.0017221
mp-961663,216,7.540035229,6.429624012,Sr1Te1Pd1,0.120671493,83.06796414,,4.67988433,-13.13956416,520,8.39E-05
mp-961664,216,4.364560374,7.854550393,V1Sn1Pd1,0.294042913,58.36457603,,6.49588862,-18.46905847,520,0.9940283
mp-961665,216,5.15191648,3.395851329,Mg1Sc1Ga1,0.139059562,67.96181265,,2.65245406,-11.83089363,520,9.93E-05
mp-961668,216,2.438502992,8.983498163,Al1V1Pt1,0.602626123,50.4635096,,5.96959615,-19.31485084,520,0.0047522
mp-961669,216,5.370233626,10.1890788,Nb1Ga1Pt1,0.460016511,58.2974226,,4.15102662,-19.46460562,520,4.42E-05
mp-961670,216,1.066584827,12.11208382,Hf1Si1Pt1,0.495972487,55.06660048,,,-23.27872738,520,1.48E-05
mp-961671,216,3.883939547,9.579003893,Ti1Ge1Pt1,0.462885533,54.70831644,,5.02254119,-19.79955707,520,5.56E-05
mp-961672,216,21.32682883,3.193428324,Sr1Al1Ga1,0.793094794,95.84623839,,1.7941878,-7.23190444,520,3.56E-05
mp-961674,216,2.454251459,10.32858172,V1Ge1Pt1,0.326583008,51.23225217,,5.28208663,-20.16199738,520,0.461821
mp-961675,216,3.391210892,4.894904111,Sc1Ni1P1,0.170234499,45.66930526,,7.16421679,-20.62767768,520,1.82E-05
mp-961676,216,6.564581868,11.91231106,Hf1Ge1Pt1,0.516404594,62.20084111,,4.25782429,-21.81099344,520,0.0004005
mp-961677,216,5.361887049,12.75687408,Ta1Ga1Pt1,0.48515107,58.02309999,,4.45983625,-21.09705816,520,9.78E-05
mp-961678,216,4.549946379,6.845132469,Sc1Co1Te1,0.019188558,56.15621045,,7.35860332,-18.96120475,520,0.0001539
mp-961679,216,4.692446967,11.56089575,Ta1Al1Pt1,0.677704174,57.88647605,,5.4099392,-21.72075822,520,5.03E-05
mp-961680,216,4.558946275,9.014415276,Nb1Al1Pt1,0.666586457,58.02075357,,5.20470191,-20.09320821,520,4.67E-05
mp-961681,216,7.045779748,9.343745359,Zr1Ge1Pt1,0.607196592,63.79103287,,3.94172997,-20.36893162,520,1.60E-05
mp-961683,216,3.264405336,1.891960087,Li1Mg1P1,0.339728663,54.60915617,,2.78921205,-10.19045743,520,2.42E-05
mp-961684,216,7.17933928,2.715182463,Li1Ca1As1,0.087580974,74.57588197,,1.0433423,-11.48442623,520,8.34E-05
mp-961685,216,8.717280798,2.70900335,Na1Ca1As1,0,84.58340769,,1.18384394,-10.55778637,520,6.20E-05
mp-961686,216,5.755124195,8.704176029,Hf1Si1Ni1,0.591201137,50.60667007,,6.37458145,-22.06816095,520,0.0009798
mp-961687,216,4.373010484,7.99551603,Zr1Sn1Pd1,0,65.70159643,,5.84614449,-20.08921539,520,0
mp-961688,216,3.073273878,10.260868,V1Ga1Pt1,0.401341563,51.09828049,,4.82412899,-18.5540822,520,0.000913
mp-961689,216,12.44663407,6.283685465,Zr1Co1As1,0.737525275,59.47976363,,4.08587567,-20.38889407,520,1.1285746
mp-961691,216,10.53893488,8.974489671,Hf1Ni1Ge1,0.799467103,57.32625141,,3.93965235,-20.1789532,520,0.0013985
mp-961692,216,9.994736896,9.886750966,Ta1In1Ni1,0.947943171,59.53355906,,5.64995921,-18.11473789,520,4.79E-05
mp-961694,216,7.496334214,5.978356129,Ti1Ni1Ge1,0.663613338,49.77442859,,4.71304844,-18.33616167,520,0.000614
mp-961695,216,5.789045923,7.576631123,La1Co1Te1,0.331989973,71.32505193,,8.37327946,-17.39201949,520,0.0006346
mp-961697,216,4.451747689,8.381544436,Sc1Ge1Au1,0.02978647,62.32064797,,4.59310506,-16.30807405,520,0.0002424
mp-961698,216,3.872770653,3.644680985,Li1Zn1P1,0.13260172,47.07494051,,3.487075,-9.84209445,520,9.26E-05
mp-961699,216,2.584559528,2.052323768,Na1Mg1P1,0.632771314,63.32721662,,2.82384953,-7.99196128,520,8.60E-06
mp-961700,216,8.341297786,6.07050318,Ti1Co1As1,0.480663766,49.70858692,,5.23030028,-20.06483208,520,0.8900419
mp-961701,216,11.22865839,6.136516924,Zr1Ag1B1,1.420365952,56.79972247,,2.78312744,-15.40716223,520,0.0001342
mp-961702,216,8.869920684,9.039048835,La1Sb1Pt1,0.408962742,83.72449371,,7.11841795,-17.10190035,520,5.44E-05
mp-961703,216,4.298948831,5.796605112,Na1Li1Pt1,0.617967688,64.45942095,,0.5090167,-8.6299365,520,1.06E-05
mp-961705,216,4.779979389,11.56202195,Ti1Pt1Pb1,0.522871295,64.650743,,6.46931197,-17.95649289,520,2.67E-05
mp-961706,216,2.554251722,8.76771753,Ti1Si1Pt1,0.061221494,51.33225243,,6.47001965,-22.22912413,520,1.83E-05
mp-961707,216,16.45836704,6.491898517,La1Ni1Sb1,0.614320792,81.68764038,,6.90010878,-15.64570853,520,4.00E-07
mp-961708,216,6.593175986,10.33093391,Nb1In1Pt1,0.615507251,64.74526374,,5.68208079,-18.47813469,520,5.00E-06
mp-961709,216,10.529644,10.94922301,Zr1Pt1Pb1,0.605778442,74.84451631,,5.2236833,-18.67253276,520,0.0001534
mp-961710,216,2.889610286,9.208049123,V1Si1Pt1,0.187744797,49.43197095,,7.28226161,-21.9383986,520,1.0005157
mp-961711,216,2.575160168,9.010956163,Zr1Si1Pt1,0.148099,57.93643552,,5.54890728,-23.07397985,520,0.0006895
mp-961712,216,3.987075549,15.23045674,Ta1Tl1Pt1,0.332976072,63.28123198,,6.23634476,-20.41468104,520,9.28E-05
mp-961713,216,4.010924799,10.15542966,Zr1Sn1Pt1,0,66.22547971,,6.29043669,-21.68096743,520,0.0006338
mp-961715,216,6.459345256,13.8030656,Hf1Pt1Pb1,0.919298073,69.86838492,,6.6082311,-19.27634125,520,0.0003749
mp-961716,216,3.792724497,10.28631128,V1Sn1Pt1,0.175847208,58.87995422,,7.25118288,-20.04592348,520,1.0001621