material_id,spacegroup.number,delta_volume,density,full_formula,e_above_hull,structure.lattice.volume,band_gap.optimize_structure_gap,efermi,final_energy,encut,total_magnetization
mp-865921,225,-0.029751376,12.67153615,Mg1Al1Ir2,0,57.09891496,,7.9376598,-25.81458428,520,0.0004957
mp-865924,225,0.550608433,11.15392411,Li1Zr1Au2,0,73.26104801,,4.19878992,-19.14442818,520,3.81E-05
mp-865925,225,0.256078551,12.79043805,Li1Zr1Ir2,0,62.65418564,,5.60104293,-30.44985672,520,3.45E-05
mp-865926,225,2.890403141,10.41991549,Cd2Pd1Rh1,0,69.18663339,,3.74342682,-15.41678594,520,4.30E-06
mp-865928,225,1.290706326,10.53392839,Ti2Tc1Pt1,0,61.29218319,,7.81786867,-35.17681027,520,0.0001214
mp-865929,225,2.33126065,12.53487953,Cd2Pt1Rh1,0,69.25865575,,4.19370278,-16.04800345,520,2.20E-06
mp-865930,225,1.911102642,7.415145066,Ti1Zn1Cu2,0,53.82773289,,5.81425545,-18.02498145,520,6.00E-07
mp-865931,225,1.128576449,8.111005494,Ti2Tc1Pd1,0,61.44952502,,7.01057102,-33.50688155,520,8.10E-06
mp-865933,225,0.374026937,14.11209821,Li1Si1Ir2,0,49.35697908,,8.5033365,-27.78392663,520,3.10E-06
mp-865935,225,2.467313063,3.517936912,Li2Mg1Sn1,0.00414996,74.05863159,,4.35687963,-10.74763387,520,1.26E-05
mp-865936,225,0.925415681,4.519936018,Li1Sc2Tc1,0,71.58524369,,4.09252435,-25.42345175,520,5.88E-05
mp-865948,225,1.360044402,10.60435722,Ti2Re1Rh1,0,60.26321299,,7.05665162,-38.23307682,520,0.0001
mp-865956,194,99.64093582,3.616757195,Ir2Cl6,0.469250054,274.1666514,,0.12547324,-28.91720686,520,0.00015825
mp-865960,194,1.72395041,18.46913799,Co2Re6,0,111.0471805,,6.8898268,-89.36633498,520,0.0559436
mp-865963,225,1.724820738,7.406977945,Li1Ga1Ag2,0,65.55200827,,3.06827622,-11.50814072,520,4.90E-06
mp-865964,225,2.857919571,3.437485285,Li2Ca1Sn1,0,83.41134646,,4.40889289,-11.861618,520,1.36E-05
mp-865965,225,1.967828796,1.92417044,Li2Ca1Si1,0,70.80441158,,3.98494289,-12.52793666,520,3.00E-07
mp-865966,225,0,13.96270047,Be1Al1Ir2,0,50.00011603,,8.46652055,-28.24414914,520,1.10E-06
mp-865969,225,0.881912979,14.14865088,Lu1Re1Tc2,0.173657894,65.39204246,,,-37.85923556,520,6.25E-05
mp-865973,2,26.45771313,5.45000413,P1H1Pb2F10,0,193.8916228,,-0.01484073,-68.49130365,520,0.0071372
mp-865977,225,3.174114581,10.06403439,Lu1Cd1Ag2,0,83.01254447,,3.34351917,-12.194737,520,0.0011062
mp-865984,225,10.74969358,9.693648537,Ba1Tl1Hg2,0,127.2584147,,3.43498606,-6.48242609,520,4.11E-05
mp-865986,225,1.688860014,2.876269216,Li2Ca1Ge1,0.001219607,73.0892092,,3.16006299,-12.13747632,520,8.01E-05
mp-865987,225,2.178929026,6.481358475,Li2Ag1Pd1,0,58.45773326,,2.31185277,-13.2096739,520,5.00E-07
mp-865988,225,1.739743022,12.48730383,Lu1Cd1Hg2,0,91.56319537,,3.63365185,-7.28196988,520,8.80E-06
mp-865989,225,0,10.57596389,Al2Ir1Ru1,0,54.52196279,,8.98953787,-29.13778278,520,0.0002996
mp-865998,225,0.152618366,16.33639821,Hf1Ga1Ir2,0.010504851,64.30640515,,7.68579658,-33.54067311,520,0.6724537
mp-866000,225,7.454186515,5.663826305,Ca1La1Cd2,0,118.3890027,,4.08029953,-10.28008623,520,0.0003632
mp-866001,225,0.364441097,8.575395892,Al1V1Ru2,0,54.23138653,,8.07257881,-33.93524696,520,1.55E-05
mp-866006,221,5.226636885,8.877436457,Ca1Bi3,0.027513764,124.7670346,,5.79992898,-15.18480083,520,1.36E-05
mp-866010,225,1.818626037,10.38534829,Ca1Cd1Au2,0,87.36878798,,3.70297718,-11.74436452,520,5.61E-05
mp-866012,225,0.647781288,14.06711312,Hf2Zn1Re1,0,71.84113822,,5.10496265,-34.80476099,520,8.00E-07
mp-866022,221,0.717531577,17.45456404,Cd1Pt3,0.025401643,66.37213313,,5.80484213,-19.79044011,520,5.70E-06
mp-866024,225,0.659914976,11.21977597,Be2Rh1Au1,0,47.04901764,,6.54115088,-19.76457124,520,6.30E-06
mp-866033,225,0.46738753,9.017767601,Al1Zn1Rh2,0,54.91107318,,6.39281992,-22.88846445,520,0.000625
mp-866041,225,1.172859752,12.60241831,Ga2Ir1Ru1,0,57.01842478,,6.99272188,-25.82538571,520,1.90E-06
mp-866046,194,2.98269937,5.888140116,Ti6In2,0,145.7556477,,6.89616986,-53.8926906,520,3.70E-05
mp-866062,225,0.089718495,11.45137595,Hf1Si1Ru2,0,59.26694284,,8.73541059,-37.12355322,520,0.0001371
mp-866069,225,1.858270055,7.097465282,Mg1Sc1Rh2,0,64.35644706,,5.37851249,-25.88364295,520,8.00E-05
mp-866071,225,0.642305577,15.58292503,Mg1Ta1Os2,0,62.41441202,,6.35092691,-36.6434919,520,8.00E-06
mp-866072,225,1.298566056,10.89401117,Mg1Ta1Rh2,0,62.65714346,,6.62159405,-30.45664617,520,7.33E-05
mp-866073,225,0.619653118,9.031500767,Mg1Sn1Rh2,0,64.13543066,,8.23000427,-22.90390399,520,7.05E-05
mp-866075,225,0.371275979,15.45488548,Mg1Ta1Ir2,0,63.35848214,,7.93726793,-33.34048926,520,1.03E-05
mp-866077,225,2.785113823,4.166067406,Mg1Sc2Cd1,0,90.33083545,,3.5977474,-15.86600482,520,0.0056413
mp-866079,225,2.408653121,4.743956719,Mg1Sc2Ru1,0.081049978,75.35738567,,4.98695466,-24.76339864,520,0.0002396
mp-866080,225,3.813469107,5.763031709,Mg1Sc2Tl1,0,91.80028338,,5.31909899,-17.39642777,520,0.0075309
mp-866081,225,1.943915589,6.783946893,Mg1Sc2Os1,0.006755819,74.5209013,,5.07392951,-26.60965473,520,7.56E-05
mp-866082,225,2.138604055,4.610023795,Mg1Sc2Tc1,0.017788124,76.44088987,,4.98764449,-25.10799556,520,0.000119
mp-866083,167,1.474818875,6.814036979,Zr6N4,0.015720642,147.0377651,,5.63161506,-98.48699976,520,2.48E-05
mp-866087,225,0.373471933,7.866932759,Mg1Si1Rh2,0,54.50074179,,8.38804996,-24.78291278,520,4.57E-05
mp-866088,225,0.700567067,12.87493323,Hf2Co1Tc1,0,66.28173584,,6.05649631,-39.3543104,520,0.0501186
mp-866094,225,1.823072084,10.50891296,Hf1Zn1Cu2,0,58.6211953,,5.41232037,-20.20910796,520,5.90E-06
mp-866096,225,1.366023583,11.04564056,Hf1Zn1Co2,0,54.38575973,,4.92264108,-26.74659389,520,0.0004711
mp-866104,225,3.382530269,9.210330895,Ca1Cd1Hg2,0,99.82149395,,3.10791349,-5.01527896,520,0.0002045
mp-866105,225,3.881178022,6.976756413,Ca2Hg1Pb1,0,116.1361146,,4.21826197,-10.43213026,520,0
mp-866106,225,8.548287982,7.169859171,Ba2Hg1Pb1,0,158.0539976,,3.09463136,-10.23223505,520,1.00E-07
mp-866108,194,5.285306766,9.584428667,Hf2Zn6,0,129.8423159,,3.77441654,-29.1062166,520,0.0005449
mp-866114,225,0.833369217,14.25743292,Hf1Tc2W1,0,65.0277485,,7.4620845,-45.02784138,520,5.36E-05
mp-866115,225,0.947256685,8.542207845,Be2Pd1Rh1,0,44.19505259,,5.59923229,-22.62144919,520,3.34E-05
mp-866117,225,0.414619765,14.75026817,Hf1Zn1Au2,0,71.80514645,,5.23557237,-19.51858943,520,0.0001198
mp-866121,225,0.92904095,10.54291881,V3Os1,0,54.03203805,,6.81887096,-39.90222342,520,0.0001126
mp-866124,225,0.827497353,13.7628902,Lu1Tc2W1,0.127535764,66.9393325,,6.31200028,-38.53719895,520,0.0456218
mp-866125,225,0.390351213,13.61623219,Lu1Ta1Ru2,0,68.05641253,,6.30035946,-36.98667194,520,1.35E-05
mp-866127,225,0.715432993,17.77960149,Lu1Ta1Os2,0,68.77427693,,6.43648104,-40.33691884,520,2.87E-05
mp-866131,225,3.120950086,11.2623857,Lu2Tl1Ag1,0,97.63338812,,4.76515261,-15.536323,520,0.0001346
mp-866132,225,5.373603927,5.587380234,Na2Tl1Sb1,0,110.5928853,,3.59845655,-10.39860905,520,0.0002648
mp-866133,225,2.086370771,10.88446805,Lu2Tl1Cd1,0,101.7163509,,4.58315695,-13.450664,520,0.0012787
mp-866137,225,0.890347376,11.6495145,Lu1Sb1Rh2,0,71.63251035,,7.59178865,-26.44958058,520,5.13E-05
mp-866138,225,0.218168765,12.03403626,Lu1Sb1Ru2,0,68.83709765,,8.48283204,-29.27348383,520,1.74E-05
mp-866139,225,0.065475504,9.349642932,Ti1Be2Ir1,0,45.84121747,,6.72980418,-26.45911915,520,7.80E-06
mp-866140,225,0.250643501,8.943883954,Ti1Ga1Pd2,0,61.348282,,5.86718591,-23.91586696,520,0.0002406
mp-866141,225,0.493137826,6.758132476,Ti1Fe2Si1,0,46.10559173,,8.39758185,-32.99032267,520,0.0005929
mp-866142,225,0.361769169,14.13165222,Ti1Ga1Ir2,0,58.99030334,,8.43388014,-31.32652102,520,0.6148532
mp-866143,225,0.64853026,8.366096748,Ti1Be1Rh2,0,52.13988264,,6.64282375,-29.54145255,520,8.03E-05
mp-866145,225,1.125190191,13.18908752,Lu2Ag1Ir1,0.003084755,81.83903978,,4.67484187,-23.49124291,520,0.0003026
mp-866147,225,0.870668583,13.35586294,Lu2Ag1Os1,0,80.57006667,,4.33350293,-24.56779384,520,1.10E-06
mp-866152,225,0.878993166,6.639928016,Ti1Be1Co2,0,43.70105273,,5.79851645,-27.56622138,520,0.0028131
mp-866153,225,0.694773824,8.099626827,Ti1Al1Rh2,0,57.539209,,8.05360089,-30.29978719,520,4.19E-05
mp-866154,225,0.204566886,13.86452715,Ti1Be1Ir2,0,52.85559037,,8.4593908,-32.5561642,520,4.70E-06
mp-866155,225,0.2883424,8.111429213,Ti1Al1Ru2,0,56.70397533,,7.58633055,-33.24483128,520,4.50E-05
mp-866156,225,-0.132347268,8.960830466,Y1Ga1Rh2,0,67.53465551,,5.5330568,-27.37479799,520,4.30E-06
mp-866157,225,0.385292383,9.2780247,Ti1Ga1Rh2,0,57.88085324,,7.06015631,-29.02275788,520,3.59E-05
mp-866158,225,1.004226428,4.836347787,Y1Lu1Mg2,0.003074242,107.2896315,,3.0593303,-14.48793012,520,0.0369066
mp-866159,225,0.454778973,8.50174359,Y1Zr1Ru2,0.025001088,74.66397958,,5.39055579,-35.41675644,520,5.16E-05
mp-866160,225,1.516369162,9.012939694,Y2Ag1Ir1,0.0048226,88.04746138,,4.75571568,-27.00728308,520,4.73E-05
mp-866164,225,4.243447414,9.148491234,Y1Mg1Hg2,0,93.36688054,,3.99284269,-10.53193158,520,6.40E-05
mp-866165,225,1.636367986,7.383398449,Y1Mg1Rh2,0,71.74856405,,4.82105676,-25.52409034,520,8.68E-05
mp-866166,225,1.138536724,7.689561322,Y2Pd1Ru1,0,83.20481341,,4.65383287,-29.87774569,520,8.12E-05
mp-866168,225,2.277165708,9.226915698,Ti1In1Pd2,0,67.58205487,,7.14514326,-23.29780956,520,6.90E-06
mp-866169,225,1.472789108,7.961601006,K1Tl2Bi1,0,136.9972274,,4.31954069,-10.52465201,520,3.90E-06
mp-866170,225,1.179463765,9.569853741,Ti1In1Rh2,0,63.94057952,,8.29145667,-27.94508043,520,3.30E-05
mp-866173,225,1.00002971,7.876458788,Y2Ru1Rh1,0.009267168,80.48954075,,4.82366361,-31.88089967,520,2.56E-05
mp-866176,225,1.555683571,9.281101729,Li2Pd1Au1,0,56.76447262,,3.04308223,-14.30489861,520,0
mp-866183,225,0.926290988,9.382322743,Ti2Zn1Re1,0,61.47605996,,5.75766996,-30.74989957,520,3.81E-05
mp-866184,194,2.945668468,7.797410413,Ti6Pb2,0,149.4133885,,7.43220281,-55.28195322,520,0.00222085
mp-866186,221,1.276998232,5.349154848,Ti3Zn1,0.009534243,64.88300948,,5.23099476,-25.37912473,520,2.22E-05
mp-866188,225,0.855762493,12.41105841,Tl1Cd1Rh2,0,69.92203842,,6.12733272,-18.17664223,520,2.80E-06
mp-866193,225,3.183375337,4.883589966,Li2La1In1,0,90.99235057,,,-12.7688073,520,5.67E-05
mp-866194,225,6.814648981,3.312854351,Li2Mg1Cd1,0.00798385,75.48591995,,1.8773096,-7.04640908,520,3.90E-06
mp-866195,225,2.805759324,6.54198158,Li2La1Tl1,0,90.6599935,,5.35476127,-12.18538038,520,0.000167
mp-866202,225,1.279685348,8.925716022,Li2Sn1Pt1,0.151887493,60.96080014,,5.90258485,-15.89787193,520,1.23E-05
mp-866207,225,1.736505943,11.00938984,Lu1Cd1Pd2,0,75.44755247,,4.08148295,-18.8888193,520,0.0020847
mp-866211,225,2.189047757,9.586679695,Lu2Cd1In1,0,99.97222442,,4.58652105,-14.13444163,520,8.10E-05
mp-866213,225,0.932055136,9.323274347,Ti1Tc2Mo1,0,60.5219549,,8.18715968,-40.85965894,520,0.0001026
mp-866214,194,109.4620548,3.975153084,Lu2Br6,0,346.4473715,,-2.00953016,-33.373297,520,0.00150055
mp-866219,225,0.425445595,12.35905387,Hf1Sn1Ru2,0,67.09037542,,8.98274482,-35.06298152,520,7.00E-07
mp-866221,225,0.788000648,12.11180953,Hf1Sn1Rh2,0,68.96322146,,8.25686789,-31.77546798,520,3.18E-05
mp-866223,225,4.215994531,8.334803893,Ca1Y1Hg2,0.002110468,105.6242932,,3.48310461,-11.23075649,520,1.27E-05
mp-866224,225,0.307946797,11.00243977,Be2Ni1Pt1,0,41.02157793,,7.34294809,-21.88141597,520,0.0001798
mp-866229,225,3.683852318,5.816777654,Ca2Sn1Hg1,0,114.0343197,,4.36449157,-10.96890698,520,7.66E-05
mp-866279,225,1.605918884,7.750174843,Ca1Cd1Pd2,0.028280584,78.27475886,,3.67936917,-15.54880185,520,0.0003293
mp-866284,225,-0.012683523,13.20946592,Al2Ir1Os1,0,54.86035357,,9.03043875,-30.40819616,520,2.40E-06
mp-866288,225,1.328966433,7.088490174,Be1V1Co2,0,41.65586245,,6.11273351,-28.18096093,520,0.4834898
mp-866291,216,2.380628476,4.917995774,Ag1Br1,0,63.40043445,,-0.27737082,-5.20386106,520,0.0001735
mp-866292,225,5.851074247,6.237293025,Ba2Tl1Cd1,0,157.4598128,,2.91916167,-8.61845939,520,8.08E-05
mp-866311,123,10.84352304,8.503511278,Bi3Br1O4,0,150.5277668,,4.19860115,-42.84840493,520,0.000272
mp-866375,225,-1.535753451,7.947001204,Ti1Fe2Ge1,0,48.51794703,,7.10433375,-31.33760788,520,2.80E-06
mp-866376,225,-0.996432467,7.557977456,Ti1Mn2Ge1,0.03814085,50.61673144,,6.70013313,-32.17788348,520,1.9730986
mp-866519,167,111.3327621,3.59475167,Ca2Sn2S6,0.195751945,235.5707793,,4.16614861,-45.74368943,520,0
mp-866688,14,36.48650034,3.999732507,Cs8P4Pd2Se16,0,1105.7184,,1.1328401,-117.3357117,520,0.00929415
mp-866810,40,-23.93806481,3.116262834,Ca4Sn2S8,0.070696703,348.6262379,,3.00811406,-67.60598891,520,0.00081695
mp-866816,221,116.5174399,3.364789229,Ca2Sn2S6,0.481695032,251.6705786,,3.98646372,-42.88425856,520,7.60E-05
mp-866818,65,38.93131159,3.00265603,Ca2Sn1S4,0.017877924,180.908332,,2.5261187,-34.17272591,520,0.0004773
mp-866820,221,86.1642648,3.002130173,Ca1Sn1S3,1.002522866,141.0362648,,2.27925753,-18.83799011,520,1.8386231
mp-866824,55,142.6139846,3.348080705,Ca4Sn2S8,0.027155505,324.4876942,,4.17160066,-68.21556568,520,5.52E-05
mp-866826,148,113.0331093,3.443851071,Ca2Sn2S6,0.071796115,245.8928783,,3.14960002,-46.98324773,520,0.00021835
mp-866833,194,19.21546493,3.418088913,Ca2Sn2S6,0.38902384,247.7461744,,4.38090424,-43.81097048,520,2.28E-05
mp-866834,11,5.033683052,3.051164733,Ca4Sn2S8,0.126104112,356.0643502,,3.18558051,-66.83028519,520,0.0001488
mp-866845,46,105.523641,3.558770084,Ca2Sn2S6,0.16384687,237.95256,,3.85466117,-46.06274018,520,0
mp-866894,38,66.64179911,3.252380013,Ca1Sn1S3,0.509115366,130.1844263,,3.98542865,-21.30502761,520,1.53E-05
mp-866917,38,61.01969792,3.39917568,Ca1Sn1S3,0.287714022,124.5623251,,4.06991165,-22.41203433,520,1.20E-06
mp-867107,225,0.140068269,14.45558673,Be1Si1Os2,0,47.96559595,,8.67299786,-32.79089615,520,6.45E-05
mp-867109,225,1.928400208,6.912890389,Sc1Zn2Ag1,0.003119661,68.13341075,,3.73580033,-12.82158207,520,1.71E-05
mp-867110,225,0.791011213,8.707548853,Sc2Co1Os1,0.007015098,64.66197504,,5.15161556,-32.4639287,520,3.57E-05
mp-867113,225,1.890624601,6.067791758,Ca2As1Au1,0,96.34198234,,4.33428372,-15.83204978,520,0
mp-867114,225,0.082754237,11.77313603,Ta1Be1Ru2,0,55.30365561,,6.26346425,-35.62747348,520,9.46E-05
mp-867115,225,3.535675596,8.061947444,Li1Cd2Rh1,0,68.93248977,,2.9125105,-12.19003342,520,1.20E-05
mp-867116,225,0.193894547,15.0628246,Be1Ga1Ir2,0,51.06017824,,7.38262905,-26.40406561,520,3.90E-06
mp-867118,225,3.490695339,11.24777109,La1Sn1Au2,0,96.18989325,,7.38856672,-18.39368272,520,0.0004354
mp-867119,225,0.909505592,10.11668301,Li1Hf1Pd2,0,65.37167801,,4.41109933,-24.74293839,520,3.44E-05
mp-867120,225,0.937313897,9.781669375,Ta1Mn2Al1,0,53.95075564,,6.80926652,-35.11365446,520,2.0001329
mp-867121,225,0.952231534,7.157746215,Li1Y2Pt1,0.036896357,88.1190322,,4.11371396,-23.54680739,520,7.48E-05
mp-867123,225,0.75557877,16.24397687,Ta1Ti1Os2,0,62.28306853,,8.03667087,-44.17844883,520,0.00012
mp-867124,225,1.078912896,9.033206768,La2Zn1Ir1,0.077775709,98.42727673,,7.79302665,-21.93456304,520,0.0008971
mp-867127,225,2.537340803,7.911031634,Sc1Cd1Ag2,0,78.31502188,,3.62593104,-13.89592256,520,7.22E-05
mp-867135,225,0.73020026,8.247745823,Sc1Zn1Pd2,0,65.07164331,,4.741859,-21.10137096,520,3.40E-06
mp-867137,225,1.322474657,8.287841367,Sc1V1Ru2,0,59.71431355,,6.96434694,-35.79111427,520,0.0003681
mp-867144,225,5.090611725,7.94058913,Ca1Mg1Hg2,0,97.35871286,,3.39226758,-5.89332653,520,0.0015363
mp-867146,225,1.020756431,8.682948903,Sc1Nb1Ru2,0,65.02250397,,6.66549435,-37.11656878,520,1.20E-06
mp-867147,225,4.513539438,7.112703882,Ba1Na1Hg2,0.004610339,131.0876035,,2.14692887,-5.40138292,520,0.0001989
mp-867148,225,0.56472962,10.67610651,Li1Hf1Rh2,0,60.85295368,,4.84862501,-29.4932591,520,3.58E-05
mp-867149,225,3.773798316,5.044121834,Sr2Cd1Sn1,0,133.7751797,,3.51422854,-10.49384603,520,7.30E-06
mp-867160,225,5.012057485,9.441777201,Li1Cd2Au1,0,75.40129065,,2.9370383,-8.37524918,520,2.55E-05
mp-867163,225,3.306183596,7.226842309,Sr2Ag1Pt1,0.064188106,109.8760403,,3.35837536,-14.36023289,520,0.0017165
mp-867167,225,2.281497523,4.179822035,Li1Ca2Tl1,0,115.797853,,3.1240073,-9.451101,520,0.0001103
mp-867169,225,3.680789756,6.177267625,Sr2Sn1Hg1,0,132.9395174,,3.49753205,-10.31060008,520,4.70E-06
mp-867170,225,0.395954742,13.89813948,Li1Ga1Pt2,0,55.77672911,,5.86743713,-19.9327402,520,8.15E-05
mp-867171,225,3.176542818,3.935595277,Sr1Li2Sn1,0,92.91367566,,3.82347482,-11.41230288,520,6.00E-07
mp-867172,225,7.142740387,7.365709083,Sr1Mg1Tl2,0,117.3856746,,4.78254447,-9.09451344,520,2.70E-05
mp-867173,225,6.530639652,8.962709341,Sr1In1Hg2,0,111.8335111,,3.99969293,-6.65471794,520,6.80E-06
mp-867174,225,2.707797782,5.325336124,Sr1Li2Pb1,0,96.25903619,,3.78165051,-10.8039684,520,5.10E-06
mp-867179,225,3.35524988,9.097522735,Sr1Cd1Hg2,0.004960598,109.7369433,,2.62624186,-4.70985504,520,0.0012097
mp-867193,225,3.150458962,7.478779587,Sr2Bi1Au1,0,129.0429328,,3.66406956,-13.95196981,520,0.0002353
mp-867195,221,1.296016699,8.503074913,Sr1Os1O3,0.101938891,63.63388101,,5.65311346,-36.04226758,520,1.0346963
mp-867196,225,4.396455688,7.904981996,Li1Cd2Pd1,0,71.03951336,,2.74559147,-10.54935699,520,4.20E-06
mp-867197,225,0.31114359,6.993252989,Li1Ga1Ni2,0,46.07711599,,5.56930322,-17.81741859,520,4.30E-06
mp-867198,225,0.371597416,8.580127156,Li1Ga1Pd2,0,56.0286212,,4.37741046,-18.10256502,520,2.60E-06
mp-867201,225,5.613154657,9.030878259,Ca1In1Hg2,0,102.2476309,,4.42877888,-6.89378506,520,2.40E-06
mp-867202,194,2.89223067,2.655928775,Sr4,0.00528638,219.1270068,,1.63823663,-6.7227146,520,0.0009344
mp-867204,225,6.247387762,7.422003514,Li1Cd2Ag1,0,75.98633789,,2.4841989,-7.39814544,520,5.50E-06
mp-867206,225,3.617957494,9.986093512,Li1Cd2Pt1,0,70.97831667,,3.24844587,-11.53319536,520,1.40E-06
mp-867207,225,5.966483941,7.09267893,Sr2Hg1Pb1,0,136.4990698,,3.3920649,-9.8115747,520,0
mp-867208,225,3.692547093,3.563873535,Sr2Li1In1,0.011392732,138.3826978,,2.45207142,-9.02933159,520,0.0001551
mp-867210,225,2.079312347,4.275132796,Li1Ca2Hg1,0.021216066,111.7428435,,2.277498,-7.41315965,520,4.40E-06
mp-867211,225,1.521848703,2.904955668,Li1Ca2In1,0,115.4192279,,,-9.89742309,520,5.67E-05
mp-867216,225,0.681072314,12.30192105,Ta1Fe1Ru2,0,59.2480784,,6.80843614,-39.6482458,520,4.6155987
mp-867219,11,4.161126272,4.614147762,Sr4Ga2Ge2N2,0,238.679332,,2.98656261,-45.36233156,520,0
mp-867222,225,1.282702567,5.231636795,Li1Ca2Ir1,0.002089123,88.65519905,,3.37859574,-15.68827749,520,1.85E-05
mp-867223,225,0.904760273,6.532738214,Li1Ga2Ni1,0,52.12883165,,5.04159829,-15.24553391,520,3.04E-05
mp-867225,225,4.773055523,8.081129069,La1Cd1Ag2,0,95.97167893,,4.73368053,-12.63054955,520,0.0023803
mp-867226,225,5.917469492,3.062220995,Li3In1,0.000330985,73.55353396,,2.57544089,-9.44417271,520,8.90E-06
mp-867227,225,2.334565612,6.372668089,Li3Pt1,0,56.25932458,,1.98487082,-13.46871173,520,2.20E-06
mp-867229,194,25.39023534,4.859961816,Rb2Sn6,0.03359429,301.7679623,,4.41664191,-27.02489568,520,2.04E-05
mp-867233,225,0.619116447,8.160248403,Sc2Zn1Ir1,0,70.72090164,,5.32388697,-25.68759436,520,4.28E-05
mp-867235,225,1.140654407,7.360024618,Li1Y2Ir1,0,85.05038179,,4.15513752,-25.93075109,520,4.92E-05
mp-867242,225,1.473632198,4.93358536,Sc2Zn1Ga1,0,75.74492549,,4.13384249,-19.03643724,520,4.50E-06
mp-867243,225,0.47573945,8.195304445,Sc2Zn1Os1,0,70.01578006,,4.90313155,-26.91287492,520,0.0001624
mp-867245,225,4.491072582,10.75898661,La1Ag1Hg2,0,100.0049916,,4.92730044,-9.91696052,520,0.0002124
mp-867248,221,5.149872097,10.01624485,La1Bi3,0,126.9655757,,7.36485045,-18.8207922,520,1.39E-05
mp-867249,225,0.91151046,10.23769443,Ta1Al1Fe2,0,51.84180148,,7.01507842,-34.30890596,520,1.80E-06
mp-867250,225,1.722946285,7.074822536,Li1Zn2Pd1,0,57.31150996,,3.00513948,-11.46797149,520,6.20E-06
mp-867251,225,1.397001047,9.667519108,Li1Zn2Pt1,0,57.17069597,,3.69171382,-12.74388817,520,1.87E-05
mp-867252,225,1.591394392,6.431956184,Li1Zn2Ni1,0,50.71814396,,3.60780067,-11.22058546,520,6.00E-07
mp-867253,225,1.311166829,9.877494408,Li1Zn2Ir1,0,55.47338299,,3.84105215,-14.67008302,520,3.50E-06
mp-867255,225,2.479139336,9.051966821,Li1Zn2Au1,0,61.40376849,,3.31239633,-9.18207188,520,2.10E-05