material_id,spacegroup.number,delta_volume,density,full_formula,e_above_hull,structure.lattice.volume,band_gap.optimize_structure_gap,efermi,final_energy,encut,total_magnetization
mp-23002,59,3.700034861,4.141586262,Ti2Br2O2,0.017888213,115.2874029,,3.48255805,-41.74957897,520,0.00450915
mp-23005,164,44.62536068,7.517303579,Bi4Te7Pb1,0.193019678,427.7248586,,5.07621438,-44.43000264,520,1.20E-05
mp-23008,129,-0.553440653,7.347367355,Pb2Br2F2,0,138.3611207,,2.64774758,-24.48609728,520,3.93E-05
mp-23009,166,1.166845238,3.471368258,Ca2Br1N1,0,83.26530907,,2.93809846,-19.63184948,520,7.50E-06
mp-23011,160,8.551453278,2.932750528,Rb1Cl1O3,0.034704513,95.64284155,,-0.61342012,-21.30351033,520,8.92E-05
mp-23012,199,15.36983154,8.804632559,Bi4Pd6S4,0,302.2668531,,5.63866015,-68.25791702,520,3.29E-05
mp-23015,194,105.2475606,4.205807771,Cs6Mo4Br18,0.010892636,1034.218313,,1.09262215,-110.1168132,520,3.99980545
mp-23017,63,11.91614556,4.524976331,Cs2Cu4Br6,0,366.7586271,,1.74117181,-37.58328099,520,0.00017925
mp-23020,62,82.61097883,6.325859156,Bi4Se4I4,0.011716235,435.5873788,,2.58278969,-40.62513315,520,0
mp-23021,225,25.0702582,4.048742455,K2Re1Br6,0,305.0712123,,0.25305943,-33.34691757,520,3.0000303
mp-23022,11,11.85570031,2.199650166,K2Cl2O6,0.021245394,185.0278123,,-0.9969008,-42.95646558,520,7.93E-05
mp-23023,129,4.966701433,5.900492871,La2Br2O2,0,132.1616021,,4.12337921,-41.0710605,520,1.57E-05
mp-23024,129,0.130381815,4.555674481,Sr2Br2F2,0,135.9744791,,0.53501919,-28.85152656,520,2.55E-05
mp-23036,225,27.77383783,3.435449616,K2Se1Br6,0,307.6939139,,-0.5230096,-23.585403,520,0.0008804
mp-23038,194,26.71185408,4.132924161,Cs2V2Br6,0,340.3576489,,2.75427728,-42.37648876,520,3.0000908
mp-23040,166,1.813596141,3.280645766,Ca2P1I1,0,120.4839423,,3.28857623,-16.58704969,520,4.71E-05
mp-23041,62,46.08915799,4.662201515,Sb4S4I4,0,399.950318,,3.1733662,-42.89181187,520,0.000164875
mp-23046,129,7.949835498,4.509434739,Sr2I2F2,0,171.9833505,,1.32171082,-27.31661037,520,0.00010345
mp-23048,194,25.17832341,4.024607905,Cs2Mn2Br6,0,352.8157828,,0.78230193,-42.43394554,520,4.99955225
mp-23051,216,14.92042968,6.04515758,Nb4Se4I4,0,328.2764122,,4.67363743,-69.22692535,520,0.001103575
mp-23052,59,10.69703612,4.967870409,Zr2I2N2,0,155.1850111,,2.64480566,-45.05918372,520,0.00020995
mp-23054,148,9.007787187,6.11454152,Na2Bi2O6,0,152.0632105,,1.28063044,-51.81883488,520,0.00012545
mp-23056,166,2.935924071,4.450620543,Sr2Br1N1,0,100.420883,,2.51066706,-18.5220915,520,7.26E-05
mp-23057,129,-41.04183689,3.590253713,Cs2Li2Br4,0.004593641,277.1881631,,-0.65227838,-25.53880203,520,2.55E-06
mp-23060,225,57.03762072,5.019903503,Cs2Pt1I6,0,404.3330595,,1.46873383,-24.36936447,520,0.0001511
mp-23067,225,18.15971381,2.648031276,K2Pd1Cl6,0,249.1623196,,-0.61553414,-28.74944313,520,0.0005577
mp-23070,129,7.805723997,4.947717833,Ba2Br2F2,0,158.5652859,,-0.04028403,-29.48517885,520,6.85E-06
mp-23072,129,14.19145796,7.294296518,Bi2Br2O2,0,138.812962,,2.39417962,-27.83702543,520,0.0018236
mp-23074,129,2.247669837,9.037540793,Bi2O2F2,0.026985088,89.65610017,,3.87672635,-32.39759387,520,3.00E-07
mp-23080,221,2.674008163,8.680683853,Al1Bi1O3,0.1206263,54.31909559,,7.06115267,-32.57968332,520,0.0483295
mp-23083,191,14.25022725,3.739057478,K1As4Br1O6,0,228.5749034,,1.04695183,-66.92474656,520,8.99E-05
mp-23091,148,6.332426695,7.168422031,Ba2Bi1Sb1O6,0.000144307,162.4746423,,4.08227073,-61.9433401,520,0.000365
mp-23092,148,4.711544934,7.776506716,Ba2Ta1Bi1O6,0.000279598,162.4084743,,3.6131852,-74.66293049,520,0.0001205
mp-23099,12,100.4630788,4.541991546,Cs2Pd1I2Br4,0.002189673,345.7290554,,0.70201539,-25.10461349,520,0.0005509
mp-23101,139,6.637606829,8.031601248,Nb2Bi2Pb1O9,0.042097108,197.4403189,,4.50113673,-102.6805212,520,0.0019434
mp-23116,129,4.399010792,8.62781295,Cu2Bi2Se2O2,0,141.4552033,,6.1704648,-38.15702768,520,0.00115385
mp-23121,176,26.96915166,3.970677066,Sr10P6Cl2O24,0,634.3825931,,1.58313006,-293.9856331,520,5.21E-05
mp-23126,191,16.78489921,3.914969404,K1As4I1O6,0,238.2396185,,1.74383249,-66.4075517,520,9.15E-05
mp-23137,225,8.576846331,6.695811337,Ba2Y1Bi1O6,0,165.7948755,,2.46474172,-67.87633057,520,7.40E-06
mp-23141,176,24.9631289,4.136536879,Sr10P6Br2O24,0,644.6343242,,1.61117862,-292.2008863,520,0.000847
mp-23152,166,-9.042817499,9.448567141,Bi2,0,73.45454768,,4.82008071,-7.79648987,520,5.00E-08
mp-23153,64,7.969465118,4.074684639,I4,0,206.867373,,1.18831249,-6.07623696,520,6.50E-07
mp-23154,64,0.256284119,3.37261385,Br4,0,157.3660281,,-0.9947555,-6.51605912,520,0
mp-23156,194,-39.8170101,0.46197537,He2,0.00246874,28.77416118,,-14.20135166,-0.04598946,520,0
mp-23157,12,4.99542348,10.19872595,Bi2,0.066902715,68.05165949,,5.60642151,-7.66268444,520,1.20E-05
mp-23158,229,-18.92681801,0.421024228,He1,0,15.78644752,,-14.12438244,-0.02546347,520,0
mp-23159,221,2.674386633,9.068004738,Sr1Bi3,0,130.8509207,,5.40434623,-15.12818659,520,0.0036424
mp-23163,227,6.934582499,7.675098188,Cs2Bi4,0,238.3643557,,4.1085493,-19.03004067,520,5.55E-05
mp-23164,62,43.86660992,7.176336654,Bi8Se12,0.025940052,606.0968239,,3.40898504,-80.22840711,520,0
mp-23170,14,35.09676802,4.975168892,I8O16,0.010598548,424.2912579,,3.70086847,-96.91224104,520,6.37E-05
mp-23173,36,49.5214044,5.169870788,Hg2I4,0.021952886,291.9017556,,-0.32462486,-8.44624062,520,6.31E-05
mp-23184,176,68.52376331,1.398671971,B2Cl6,0,278.2144252,,-2.93936134,-32.21331236,520,0
mp-23185,14,18.30297803,3.694139548,Xe2F8,0,186.3532812,,-4.29994947,-20.19810148,520,2.77E-05
mp-23187,220,-6.204963058,8.098855118,La8Bi6,0.005886104,484.9308039,,7.50644218,-75.64500875,520,0.0238021
mp-23188,194,18.16520033,8.083550474,In4Bi2,0.016409251,180.2029091,,6.45199394,-18.70546771,520,9.30E-06
mp-23189,176,102.6816056,3.101461394,B2I6,0,419.2485318,,-0.67688839,-22.98268316,520,0
mp-23192,137,58.25713979,5.324169322,Hg2I4,0.000289859,283.4422175,,0.1472463,-8.57621878,520,0.00010795
mp-23193,225,17.05313549,1.903571109,K1Cl1,0,65.03321234,,-1.98665199,-6.86146851,520,0
mp-23195,114,35.82190544,8.287991086,Bi8O12,0.022702459,373.4285438,,3.56625341,-114.6034826,520,0.00014025
mp-23197,221,5.57653738,6.979307598,Tl1I1,0.051753455,78.82103888,,2.78706267,-5.14531413,520,0.0001365
mp-23201,221,-0.054610762,9.146790192,Ba1Bi3,0.025692811,138.7478182,,5.03812483,-15.4437435,520,0.0007029
mp-23204,148,10.1739759,2.75737746,Fe2Cl6,0.095503547,195.3639488,,0.90213529,-32.88072511,520,0.02320195
mp-23205,164,15.80333274,3.892506557,Mg1I2,0,118.6431026,,1.18215154,-7.8306205,520,7.32E-05
mp-23209,225,2.808607284,3.008535265,Sr1Cl2,0,87.4972665,,-0.02154892,-12.84239639,520,0
mp-23210,166,11.30425128,2.055140716,Mg1Cl2,0,76.92980888,,-0.78157398,-10.8650338,520,0.0002269
mp-23217,14,15.28155601,11.34273285,Bi8Rh4,0,305.0125,,6.39691741,-62.87002826,520,1.00E-06
mp-23218,148,29.82820285,4.243515946,As2I6,0,356.5909645,,0.92314277,-20.02552512,520,0
mp-23222,225,0.979854899,4.992100805,Li3Bi1,0,76.44026676,,2.92257412,-11.73494616,520,9.30E-06
mp-23224,164,27.34032261,7.72711536,Bi6Te6,0.195259904,433.9820502,,5.26251642,-44.53221654,520,0.00054895
mp-23225,176,104.653933,2.37830305,B2Br6,0,349.831971,,-2.83249303,-27.37668176,520,0
mp-23227,194,1.151728114,4.865375526,Cu2Br2,0.041426565,97.91816644,,2.40424908,-12.30707324,520,2.31E-05
mp-23231,225,2.805009111,6.224579675,Ag1Br1,0.037009185,50.09222872,,1.26020975,-5.12984269,520,2.00E-07
mp-23232,148,11.14672579,4.425671215,Fe2Br6,0,221.7896058,,1.19640165,-29.49482346,520,4.0991003
mp-23241,225,2.4196448,7.760530787,Y1Bi1,0,63.73942211,,4.70531855,-12.1403653,520,0.001197
mp-23251,225,18.78027586,2.624471793,K1Br1,0,75.29437563,,-1.89269854,-6.27069812,520,0
mp-23253,227,6.041176249,7.302335035,Rb2Bi4,0,228.95768,,3.79079833,-19.25387374,520,9.10E-05
mp-23259,225,0.305370786,3.441826701,Li1Br1,0.02549247,41.89912086,,-0.13465721,-6.63267599,520,0
mp-23260,62,24.1558821,4.89938523,Ba4I8,0,530.2677523,,1.65397636,-41.44369353,520,0.0004129
mp-23262,14,11.36513928,9.060333354,Bi8O12,0,341.5958686,,4.41368069,-115.0575317,520,8.75E-07
mp-23263,176,10.18810893,4.871831503,La2Br6,0,258.0996858,,1.76045744,-35.8713055,520,8.07E-05
mp-23268,225,1.650648283,3.572370188,Na1I1,0,69.67509612,,0.7467165,-5.38684399,520,4.80E-06
mp-23281,148,80.60953845,4.293227602,Sb2I6,0,388.694377,,1.24341962,-20.26892144,520,0
mp-23282,193,59.25303538,4.27336428,Zr2I6,0.002139753,366.7698059,,3.00985334,-33.9397786,520,0.03099315
mp-23289,221,-3.770521062,2.187678073,K1Cl1,0.07788268,56.58755081,,-0.78366997,-6.70570315,520,0
mp-23292,36,34.86298446,5.199394272,Hg2Br4,0,230.2017957,,-1.77767272,-9.98783407,520,7.26E-05
mp-23295,225,4.895083206,2.671979354,Rb1Cl1,0,75.14792688,,-2.05782746,-6.70481531,520,0
mp-23297,36,11.6572281,3.215932147,Br2F6,0,141.3751732,,-1.46239923,-21.81285996,520,2.48E-05
mp-23299,221,5.865763062,3.145936727,Rb1Cl1,0.06131875,63.82636606,,-0.94454537,-6.58217781,520,0
mp-23301,225,-2.433441352,9.220551868,Bi1F3,0.270373351,47.89983178,,3.57348867,-18.26955566,520,0.0037719
mp-23302,221,-6.332318876,3.90230641,Rb1I1,0.049678705,90.37026012,,0.41313496,-5.41789523,520,0
mp-23303,221,5.766317503,3.701679844,Rb1Br1,0.055207575,74.1842465,,-0.85606471,-6.03023399,520,3.00E-06
mp-23304,225,9.726547951,4.039472825,Rb3Bi1,0.030321663,191.3091143,,1.17857129,-7.9936536,520,1.14E-05
mp-23306,166,0.88780205,5.480091834,Cu2I2,0.253785915,115.4179347,,3.54534259,-10.84633945,520,4.78E-05
mp-23313,129,8.526364852,8.679094658,In2Bi2,0.003356858,123.9022975,,6.0146002,-13.28677911,520,3.30E-06
mp-23317,19,150.9805224,3.024080987,As4Br12,0,691.0679685,,-2.03586426,-45.63013136,520,0
mp-23324,62,40.37513315,5.821355489,Bi4S4Br4,0,366.2026891,,2.01078088,-45.1332654,520,0
mp-23349,5,8.810648319,4.67224481,Bi1B3O6,0.001538185,119.9171208,,1.55345627,-75.23471283,520,0.0006242
mp-23350,225,23.51379323,3.629657132,Rb2Pt1Cl6,0,264.7678124,,-0.49642921,-30.12463438,520,3.95E-05
mp-23353,121,56.15565234,5.723613666,Cu2Hg1I4,0,242.3378204,,2.55041413,-16.23665693,520,0.0007377
mp-23383,225,34.13292412,3.782692568,Rb2Te1Br6,0.001057781,341.5113082,,-0.288849,-24.43517374,520,0
mp-23405,225,34.08613947,4.062435181,Cs2Te1Br6,0,356.775276,,-0.15030844,-24.65951877,520,0
mp-23411,128,38.9894292,3.457366391,K4Te2Br12,0.01252829,658.2094164,,-0.28640221,-48.88067572,520,0.0009447
mp-23425,225,36.19952775,3.572715513,Cs2Pb1Cl6,0,318.7154453,,,-28.60602414,520,0.0022128
mp-23431,63,22.4184899,4.817214122,Cs2Cu4I6,0.0042752,441.718127,,2.80280464,-34.79712978,520,0.0003291
mp-23435,166,34.42853483,6.847440531,Bi4Te2I2,0.103657711,326.1524737,,4.1278817,-26.91850598,520,0.00016915
mp-23438,225,-6.633691885,7.543374867,Ba2Bi2O6,0.024105211,173.5986489,,4.10169225,-59.27680981,520,2.41E-05
mp-23450,88,16.17643736,3.750806377,Rb2I2O8,0,244.7062911,,-0.9230942,-53.07767274,520,0
mp-23451,194,108.8607251,3.976184912,Cs6Cr4Br18,0,1020.536334,,0.04094895,-109.1214569,520,5.99990245
mp-23471,225,11.87932293,2.681497287,K2Ru1Cl6,0,242.7396569,,0.72083074,-33.32149785,520,1.9987892
mp-23475,225,24.33167926,3.371128065,Rb2Pb1Cl6,0,291.0406994,,-0.80289782,-28.42880477,520,0.0001698
mp-23482,148,4.922639025,7.595416682,Ba2Bi2O6,0.002464749,172.4091962,,3.77744357,-59.49321443,520,5.00E-08
mp-23505,225,13.55280793,3.482447509,K2Te1Br6,0.023133056,326.7344459,,-0.1602315,-24.34489497,520,0.0020372
mp-23514,62,52.33810557,5.902741547,Bi4S4I4,0.002827083,414.04159,,2.71504139,-43.01033972,520,0
mp-23548,148,4.712368503,7.836022907,Ag2Bi2O6,0.048768435,154.6300623,,2.51122397,-49.04907297,520,1.70E-06
mp-23562,88,14.769169,3.449424473,K2I2O8,0,221.4425024,,-0.56672868,-53.33728258,520,0
mp-23582,166,8.316697932,4.077835195,K1Li6Bi1O6,0,157.0698457,,1.05933452,-69.82133653,520,4.00E-07
mp-23664,160,4.919733671,2.924124489,Y1H3C3O6,0.13807901,127.1803872,,0.79925263,-92.55376494,520,1.70E-06
mp-23667,43,14.06584232,2.709811991,Rb2P2H4O8,0,223.6123549,,-0.89554947,-95.44565551,520,0.0001438
mp-23675,129,9.39876423,2.1865217,H8Br2N2,0,148.7634708,,-1.27737631,-53.63710903,520,0.00043725
mp-23680,11,28.99540095,1.708093851,H4C8O8,0.284644619,221.7617089,,-0.19185293,-139.3302924,520,2.98E-06
mp-23684,15,4.58007464,1.855174036,Na2H2C2O4,0.088999487,121.744509,,-1.0892765,-60.33358679,520,0.00015325
mp-23694,62,0.800300433,1.056163195,Li4B4H4,0.128266031,117.9803004,,1.61133326,-50.42686845,520,0
mp-23697,139,81.17036143,1.576950402,K3Al1H6,0.050105641,158.2922334,,0.72442183,-28.95426027,520,2.63E-05
mp-23709,164,-0.688975356,1.000494971,Mg1Al2H8,0.034183009,143.2860651,,-2.01552006,-36.43517663,520,8.35E-05
mp-23710,136,-22.76287462,1.422638316,Mg2H4,0,61.44477948,,0.04055852,-17.82236364,520,2.50E-07
mp-23711,60,-0.737321798,1.450102639,Mg4H8,0.000721099,120.5620834,,0.35458675,-35.63607409,520,7.69E-05
mp-23712,62,16.27450958,1.766551848,Mg4H8,0.081753414,98.96533487,,3.15563201,-34.66368631,520,1.60E-05
mp-23713,62,0.166039768,1.959076316,Ca4H8,0,142.7173214,,0.79139498,-41.82009233,520,5.36E-05
mp-23714,62,1.02804805,3.317780904,Sr4H8,0,179.4499184,,0.06977738,-40.29921312,520,1.07E-05
mp-23715,62,3.870145621,4.106338927,Ba4H8,0,225.3922984,,-0.09186309,-40.66177228,520,0.00014945
mp-23719,4,-1.546436537,1.060873929,Be2Al2H10,0.01523942,128.4555968,,-0.3704722,-49.01818348,520,0.0001157
mp-23722,225,-17.9373623,2.604151094,H1Cl1,1.278932693,23.24934772,,2.61532894,-3.69838087,520,1.59E-05
mp-23724,2,30.5689394,2.126542191,K2H2C2O6,0.016257977,156.3525043,,-0.64722756,-75.43263156,520,6.80E-05
mp-23729,221,2.512547937,1.556932427,Na1Be1H3,0.125873821,37.35657348,,2.59596078,-15.46638362,520,2.29E-05
mp-23736,161,-0.149625227,1.20447416,Li2Mg2H6,0.011357729,94.49164774,,-0.4279449,-29.96145655,520,5.00E-08
mp-23737,221,-0.288604853,1.693405642,K1Mg1H3,0,65.13786382,,0.09101338,-14.1386524,520,6.00E-07
mp-23751,166,13.48653497,3.154975869,Cs3Mg3H9,0.004143734,253.0053557,,0.35010803,-41.3153295,520,8.75E-05
mp-23758,166,0.180548586,1.190429899,K1Na1B2H8,0.002065248,128.0156252,,-2.96253502,-47.18015251,520,2.34E-05
mp-23759,194,1.738666764,3.535016788,Sr2H4,0.043908145,84.21112943,,1.80000505,-19.88615769,520,2.26E-05
mp-23791,2,7.143131767,1.460451118,B4H12O12,0,281.2176111,,-2.79064135,-170.4547861,520,0
mp-23794,186,0.049882165,0.996507334,H8N2F2,0,123.4334263,,-4.23349068,-58.81593878,700,0
mp-23795,12,5.935385815,2.683570018,Cu1H4O2F2,0.024629463,85.12762636,,,-42.17618852,520,0.9999998
mp-23803,31,2.750627481,5.184995875,Ga2H2O4,0.015278566,65.8001464,,1.96974232,-44.94868997,520,3.43E-05
mp-23804,225,-5.244177775,2.776776245,Mg2Fe1H6,0,66.08164704,,2.86159345,-34.55825685,520,1.41E-05
mp-23807,31,1.85339244,3.423456334,Al2H2O4,0.033222436,58.19433276,,4.78043283,-52.21045408,520,1.25E-05
mp-23818,221,-0.196047156,3.76835859,Ba1Li1H3,0,64.90460278,,0.80821311,-16.52409857,520,1.50E-06
mp-23856,129,1.98756897,1.398142919,Li2H2O2,0,56.88567738,,-1.92540451,-29.79108809,520,1.00E-06
mp-23862,129,-4.20243448,4.916340995,Ba2H2I2,0,179.1740628,,1.89936704,-20.95661569,520,0.00052635
mp-23879,164,1.628836641,2.197720947,Ca1H2O2,0,55.98244304,,-0.35882532,-28.13011976,520,0
mp-23896,166,3.225715974,6.575262347,Lu2H2Cl2,0,106.7894572,,4.6462091,-27.78934896,520,7.65E-06
mp-23903,225,-19.74337405,4.591525283,H1Br1,1.135406525,29.26204842,,1.97521735,-3.25798044,520,2.44E-05
mp-23918,63,-0.835278117,1.957751256,Na2Ga2H8,0,164.1148918,,-2.61331271,-36.97425399,520,1.22E-05
mp-23933,167,0.821881206,1.459511166,Al2H6,0.008973173,68.27637982,,0.86171278,-27.82822252,520,4.10E-06
mp-23934,19,-12.6451857,1.56573902,P4H24N4O16,0.001296912,487.9604233,,-1.47352707,-273.7561402,520,0
mp-23940,11,2.074298403,1.954764101,Na2H2O2,0.001865457,67.95373561,,-0.65158402,-27.24018667,520,8.75E-06
mp-23949,221,-0.164520569,2.274957471,Rb1Ca1H3,0.017991999,93.84565475,,-1.21809232,-15.03269535,520,0.0002154
mp-23950,225,3.590338975,1.404973273,K2B6H6,0.047530617,176.2335125,,-1.25829332,-66.84030707,520,1.99E-05
mp-23951,225,11.55545513,2.428312109,Cs2B6H6,0.052909169,230.2604548,,-0.89992424,-66.53141195,520,0
mp-23977,62,162.3426137,1.659884664,H4S28N4,0.052881286,958.256184,,0.76481726,-159.0614957,520,1.33E-06
mp-23980,12,19.49097538,3.912758853,Cs3H1Se2O8,0.002182398,290.9791256,,-0.73427235,-70.3922163,520,5.18E-05
mp-24001,2,16.01025621,3.035367882,Na2Zn4P4H2O16,0,377.2095245,,-0.16008858,-170.2398106,520,0.0008598
mp-24007,11,19.57571735,3.171356735,Rb4H2Br2O2,0,280.4921286,,-1.11681725,-38.63481017,520,9.11E-05
mp-24030,164,12.26359387,2.706817654,Zr1P2H2O6,0,154.0925788,,-0.32066522,-79.22264748,520,0.0003352
mp-24076,176,4.258657996,3.730481074,Y2H6O6,0.020870722,124.5714353,,1.11975819,-90.04394254,520,1.05E-06
mp-24082,21,0.980731196,15.32506819,Ta2H1,0,39.32222383,,5.34217693,-27.55230751,520,0.0001787
mp-24084,225,-0.186618188,1.44122859,K1H1,0,46.20917025,,-1.6204119,-4.88001039,520,6.14E-05
mp-24093,186,-1.220654459,6.673768881,Cu2H2,0.061547828,32.12407845,,5.7310432,-14.43186655,520,6.62E-05
mp-24153,225,-0.284944051,5.175527693,La1H2,0,45.21382497,,6.44224568,-13.59591898,520,1.12E-05
mp-24154,225,0.141504035,6.584075238,Nb1H2,0,23.93990238,,5.18122573,-17.54540928,520,5.19E-05
mp-24155,225,0.715577784,5.535906888,Zr1H2,0.00790765,27.9680392,,4.57199691,-16.96329806,520,1.04E-05
mp-24161,225,4.190888788,3.825736382,Ti1H2,0.000919113,21.65137934,,5.7383184,-16.12613955,520,0.0042165
mp-24199,166,1.067657813,2.156240582,Li1H1F2,0,35.38320642,,-3.50200463,-18.36126803,520,4.86E-05
mp-24201,225,-24.51695027,2.339950318,H2S1,0.974504243,24.18539887,,4.91628641,-8.43606466,520,5.33E-05
mp-24204,129,4.71228415,3.64904533,Ca2H2I2,0,152.8918437,,1.56611422,-20.5325098,520,7.04E-05
mp-24205,129,10.74407762,4.157114221,Sr2H2I2,0,172.1867441,,1.16121727,-20.25938238,520,0.00065385
mp-24208,225,2.925283598,5.181643983,Cr1H2,0.002999017,17.30898566,,5.94041252,-16.21170315,520,0.8856754
mp-24230,15,31.17812031,1.60604518,H6C6N6O6,0.009196445,266.9075366,,-1.06335936,-171.1648165,520,0.000532667
mp-24232,14,45.11898144,1.541677394,H20C4N12O16,0.212528953,530.2260651,,-1.42446061,-312.4665571,520,0.001739325
mp-24237,225,0,2.856686099,Sc1H2,0,27.30383798,,4.02237924,-15.11326506,520,1.52E-05
mp-24263,2,17.03011423,2.194285541,K4P4H8O16,0.002794822,411.9342739,,-0.62861304,-191.4049312,520,0.00012235
mp-24288,225,-0.214704731,9.283141731,Lu1H2,0,31.65813796,,3.25333111,-13.33550948,520,3.80E-06
mp-24289,225,2.220137493,10.05426672,H1Pd1,0.022736475,17.74254585,,4.89931017,-8.69685144,520,0.0008407
mp-24292,225,1.454074103,4.216492851,Sr2H6Ru1,0,111.1980741,,1.15162819,-38.24411448,520,1.63E-05
mp-24341,11,1.830649723,2.11491617,Cs2Be2H6,0,227.6032933,,-2.42060167,-30.61715543,520,0
mp-24361,2,14.6762094,2.458448022,Ca2P4H8O16,0.006318051,316.1777542,,0.39720763,-190.4121709,520,2.51E-05
mp-24390,1,11.2275846,2.819676474,Ca4P4H4O16,0,320.5026728,,1.52364969,-189.796398,520,1.50E-06
mp-24409,129,3.840807068,2.795230927,P2H8I2,0,192.3689811,,0.95963461,-42.0499468,520,0
mp-24417,194,2.642509853,8.431615853,Mo2H2,0.408319233,38.18623667,,7.76012713,-26.57088251,520,0.00015645
mp-24419,221,42.98973422,1.631795495,Sr1Li1H3,0.460371812,99.30374475,,-1.65595942,-13.89927932,520,1.02E-05
mp-24420,225,-25.18636549,4.563622076,H2Se1,0.696908441,29.4642299,,3.7145287,-7.87824741,520,2.06E-05
mp-24422,129,5.808515736,3.252074683,Ca2H2Br2,0,123.5571371,,0.59720628,-22.08244416,520,1.36E-05
mp-24423,129,2.530393895,4.160340033,Sr2H2Br2,0,134.5341312,,0.78065689,-21.77444551,520,0.0001396
mp-24424,129,2.457020206,4.617232507,Ba2H2Br2,0,156.9746723,,0.7282228,-22.44996472,520,0.0001447
mp-24428,11,-0.222997487,1.654836736,K2H4N2,0,110.6216356,,-0.16874978,-35.21368733,520,2.60E-06
mp-24433,2,12.51511621,2.998061679,K2H2Se2O6,0.015188212,185.0642545,,-0.11001495,-60.23438602,520,1.31E-05
mp-24473,33,8.468716589,2.129959189,Be4P4H16N4O16,0,380.5186549,,0.40112208,-272.4500702,520,0.040257975
mp-24504,194,-20.81207477,0.120455365,H4,4.44E-16,55.57988111,,-8.37463112,-13.56839685,520,0