material_id,spacegroup.number,delta_volume,density,full_formula,e_above_hull,structure.lattice.volume,band_gap.optimize_structure_gap,efermi,final_energy,encut,total_magnetization
mp-30737,189,4.079560363,5.136683332,Y3Mg3Ag3,0,214.405115,,3.45906923,-35.32224061,520,2.13E-05
mp-30738,44,1.532972608,17.36844212,Li1Ir3,0,55.795292,,7.27084676,-29.17144583,520,4.11E-05
mp-30739,194,3.20299825,5.84386257,Mg6Ir2,0.015726863,150.6750138,,4.59402597,-29.89681932,520,1.37E-05
mp-30744,51,1.754748152,20.51773482,Ir2W2,0,60.87000687,,8.2516219,-44.85568727,520,2.45E-06
mp-30745,194,38.09913485,21.33033844,Ir6W2,0,118.4064658,,9.53112968,-81.85043697,520,2.50E-07
mp-30746,221,1.026654321,11.48553403,Y1Ir1,0,40.64377557,,5.76215837,-16.96437195,520,2.50E-06
mp-30753,191,5.995184728,9.792285808,La1Pd5,0,113.7865868,,5.5662522,-34.32342123,520,0.0004518
mp-30754,189,9.919874568,9.908847199,La3Tl3Pd3,0,226.0885512,,7.55647406,-43.63265349,520,4.06E-05
mp-30758,225,1.735660404,5.113466959,Li2Mg1Pb1,0,79.6865799,,4.03894451,-10.15673346,520,6.90E-06
mp-30759,225,6.03430641,5.022910419,Li1Mg2Tl1,0.027277866,85.93246086,,4.64108767,-7.88365328,520,1.97E-05
mp-30760,225,3.936448034,5.05687818,Li3Pb1,0,74.87645145,,2.86066907,-10.72847052,520,0.0012884
mp-30761,164,0.113723487,4.575942166,Li7Pb2,0,168.0108622,,2.59810573,-23.61958156,520,0.0018138
mp-30763,225,3.624235469,10.3250212,Li1Pd2Pb1,0,68.66994326,,5.62434521,-17.65322675,520,5.11E-05
mp-30764,227,-6.28760894,12.74768992,Li2Pt4,0.046150532,103.4563912,,3.68948206,-30.63743,520,3.90E-06
mp-30765,225,6.55107986,18.71219129,Li1Pt7,0,121.7996307,,6.57046604,-46.36780883,520,0.0028557
mp-30766,166,-1.533881699,3.555816871,Li5Sn2,0.004563013,127.0802751,,,-20.33547421,520,8.00E-07
mp-30770,186,-37.73632159,9.230848668,Lu2Mn10,0.126378856,161.7778394,,5.11139129,-99.48967246,520,0.011947
mp-30773,225,3.303821943,7.457107791,Mg1Ni2Sb1,0.07341581,58.66510333,,8.95190704,-18.2267281,520,0.0015534
mp-30777,221,2.224548822,16.21368444,Mg1Pt3,0,62.42832711,,6.63170216,-22.12021167,520,1.34E-05
mp-30780,62,8.881594547,4.24316861,Sr4Mg4Sn4,0,361.0305945,,4.40609708,-35.99143051,520,1.13E-06
mp-30785,221,2.514493659,10.15876422,Mn3Pt1,0.234780291,58.8285042,,5.29842437,-33.30038586,520,11.0032724
mp-30787,194,3.658853136,11.60522443,Mo2Rh6,0,115.8009343,,7.57830763,-67.78469787,520,0.00011285
mp-30788,223,2.644000093,10.01367797,Sn2Mo6,0.06722275,134.8273707,,9.57891136,-72.65507125,520,1.70E-05
mp-30790,223,20.39993526,8.921565798,Zr2Mo6,0.33451922,141.1002002,,6.70837518,-80.36208242,520,4.64E-05
mp-30796,216,4.942151117,8.345046598,Nb1Sn1Rh1,0.701117856,62.58513413,,6.22390149,-20.44955266,520,0.0001556
mp-30807,216,3.880138777,8.884833366,Zr1Ni4Sn1,0.033588682,83.11403273,,8.48139779,-37.91396768,520,0.0024129
mp-30815,191,2.167306509,6.345840526,La1Al3Pd2,0,113.2235796,,7.2261688,-31.62282867,520,2.02E-05
mp-30816,216,2.058987155,4.294100786,Li2Al1Pd1,0,56.9548965,,3.76966897,-14.86735523,520,0.0001807
mp-30817,225,1.735255417,4.875658108,Li1Al2Pd1,0,56.98680186,,6.4658052,-17.10885427,520,0.0004717
mp-30818,216,1.565581371,7.064851764,Li2Al1Pt1,0,55.45765323,,4.61629088,-16.43446632,520,0.000317
mp-30819,225,2.71856092,7.526715045,Li1Al2Pt1,0,56.47592521,,7.26398703,-18.76200809,520,0.0001721
mp-30820,216,-0.055830286,4.401300795,Li2Al1Rh1,0.054863642,54.24171454,,4.10809696,-16.88244619,520,6.20E-06
mp-30821,225,1.660030349,4.94195568,Li1Al2Rh1,0,55.04140784,,6.70436314,-19.59669438,520,5.80E-06
mp-30828,62,17.43382784,5.302831631,Sr8Pb4,0,479.0320301,,3.23583438,-34.89817435,520,0
mp-30844,225,3.594861367,12.6508573,Sc1Sn1Pt2,0.057360802,72.69569252,,8.0269307,-26.03016756,520,0.0008087
mp-30846,194,12.07858874,11.11942925,Sn6Pt4,0,222.899384,,8.01958755,-53.38623715,520,2.46E-05
mp-30847,216,2.067894094,9.925807189,Ti1Sn1Pt1,0,60.50411804,,6.97112914,-20.45043363,520,3.66E-05
mp-30849,63,13.26582872,19.20366463,Ta2Pt4,0,98.76867083,,7.24381695,-52.47451563,520,8.45E-06
mp-30850,59,4.724245586,19.90951307,Ta2Pt6,0.004418614,127.8087323,,7.5202981,-65.79629807,520,2.96E-05
mp-30856,221,1.987953471,17.71571341,Zn1Pt3,0,60.98811643,,6.21161119,-20.71020079,520,9.10E-06
mp-30858,221,3.21945078,16.83104392,Zr1Pt3,0.008828733,66.74064978,,7.69730685,-30.79830481,520,0
mp-30866,194,4.07176087,14.09088472,Rh6W2,0,116.0905527,,7.31825287,-72.21744471,520,3.40E-05
mp-30867,221,0.364352514,7.298258985,Sc1Ru1,0,33.22459894,,5.72110368,-16.68089362,520,0.0005625
mp-30871,223,4.161907693,14.54767732,Ta6Sn2,0,151.0255723,,7.13007283,-79.42720059,520,0.0726886
mp-30877,194,15.45839125,8.298017637,Sr2Tl4,0,198.6665646,,4.86930245,-14.86647863,520,6.60E-05
mp-30882,194,0.511604785,6.49111214,Ti4Zn8,0,182.8428854,,4.02215065,-44.04475809,520,0.005516025
mp-30885,191,1.456230159,6.674757856,Y1Zn5,0.003527185,103.4798026,,3.27696616,-14.5533931,520,8.37E-05
mp-30892,220,33.17146029,6.29770254,Ba8Bi6,0,620.2921478,,2.46758977,-51.47059559,520,8.30E-06
mp-30893,220,19.19311748,6.073175834,Sr8Bi6,0,534.4966474,,2.82183677,-49.14942174,520,5.31E-05
mp-30919,123,5.059560677,7.029204186,La1Ga6Pd1,0,156.7800667,,5.00279189,-32.53687161,520,0.000369
mp-30938,2,81.02708893,2.964705835,P2Au2S8,0,399.0173654,,0.09858328,-52.4427122,520,0.00041045
mp-30943,148,30.99032891,3.592766414,Mg2P2Se6,0,270.065445,,1.86602426,-41.02498072,520,0.00085665
mp-30946,12,107.3048234,3.852054512,Ga2Pd1I8,0,543.6342346,,-0.16955122,-28.20324095,520,0.0005131
mp-30953,14,140.8922354,3.090430908,Ga4Br12,0,665.0579328,,-2.43023,-45.10587112,520,0.000556175
mp-30965,15,5.995178235,2.347678671,Na2Cl2O4,0.214096939,127.9406406,,1.61781,-31.29280814,520,0
mp-30971,14,33.48047293,4.987957392,Cu4Te8Cl4,0,471.6650294,,3.6525629,-53.19830868,520,0.000392425
mp-30973,12,4.068982971,9.074048885,Ni6Bi4Se4,0,275.2157527,,6.61385569,-67.39213507,520,2.50E-07
mp-30988,15,10.80586252,5.735482065,K2Bi2O4,0,162.1762975,,2.0849011,-40.84919995,520,2.20E-05
mp-30993,129,12.47427867,5.531627559,La2I2O2,0,169.1926674,,3.89103996,-39.69634,520,3.38E-05
mp-30996,14,44.28346288,4.435532801,Rb2Au2Br8,0,450.7815348,,-1.19239026,-30.72278909,520,0.00025375
mp-31000,14,1.52125652,1.469867838,N4O4,0.446650526,135.5939608,,-0.03732811,-50.11740477,520,0.999974025
mp-31002,12,14.52249864,4.677043551,Rb2Te5,0,287.2047544,,3.1437755,-21.44393867,520,3.90E-06
mp-31018,194,12.10713038,7.194390059,Sr2Ag2Bi2,0,186.7110054,,3.92202292,-20.46282784,520,5.05E-06
mp-31036,14,51.71896384,5.224530141,Cu4Te8Br4,0,506.8198444,,3.22494713,-51.28065888,520,0.000453175
mp-31040,12,55.83896064,2.585315805,Nb2Cl8,0,301.517542,,0.00494957,-47.51611661,520,0.00041665
mp-31052,180,6.948504413,12.47894086,La3B3Pt6,0,215.5229156,,8.13343223,-82.33965944,520,2.60E-05
mp-31053,4,-81.82555386,5.622196823,Ag4S2,0,146.3783328,,1.09181287,-19.92514595,520,0.00015085
mp-31055,221,1.57670345,4.887453947,Sc3In1N1,0,89.5909382,,6.36596202,-35.68332058,520,0.0002543
mp-31072,189,2.234870779,5.207029494,Sc6Te2Rh1,0,200.2205761,,6.08017805,-58.81824799,520,0.0068788
mp-31076,128,55.29231441,5.181752617,Tl4Te2Br12,0,651.0383928,,0.64068778,-46.65783622,520,0.00218
mp-31082,166,1.626779003,3.570781837,Li4Zr1Ge2,0.402425227,122.893907,,1.94194173,-25.84900075,520,1.96E-05
mp-31091,127,7.349795144,11.72825897,Lu4Pd4Pb2,0,218.0326834,,5.28863475,-54.66552843,520,3.55E-06
mp-31098,191,-25.68353564,13.92834231,Y1B2Ir3,0,81.92556462,,7.88144882,-50.48355348,520,5.79E-05
mp-31140,194,9.392621597,9.001168004,Ba2Bi2Au2,0.412355288,200.4467941,,3.22276492,-19.87061297,520,3.61E-05
mp-31141,194,3.560496169,9.29584363,Sr2Bi2Au2,0.325421642,176.3341238,,3.9279921,-19.7119218,520,2.45E-06
mp-31142,216,8.815649866,10.79898027,Yb1Bi1Au1,0.438716652,89.02974558,,2.82920094,-9.54736655,520,3.18E-05
mp-31145,194,7.059437488,7.178473138,Ba2Cu2Bi2,0.040559547,189.616248,,,-23.04565285,520,1.50E-07
mp-31147,194,3.00743237,4.66295355,Ba2Zn2Si2,0,164.3971392,,3.10824062,-19.47509179,520,4.70E-06
mp-31148,194,6.871490577,5.471994619,Ba2Zn2Sn2,0,195.0928937,,,-17.55910725,520,1.00E-07
mp-31149,221,2.260347409,4.786297059,Ca3Bi1N1,0,119.0757759,,4.32092833,-23.32839906,520,7.00E-07
mp-31152,62,2.800143358,8.284036613,Ca4Ga4Pt4,0,244.4573673,,,-55.39561416,520,0
mp-31153,62,6.365066794,8.466892472,Ca4Ge4Pt4,0,241.4662708,,4.69365538,-61.67795519,520,6.50E-07
mp-31157,221,76.47106855,2.227460401,Ca3Sb1N1,1.68609484,190.844765,,1.86090428,-15.52491273,520,3.86E-05
mp-31160,186,-1.139453208,5.131943425,Ca2Zn2Sn2,0,145.0865063,,5.04435302,-17.61359335,520,1.85E-06
mp-31168,216,-0.987951303,3.918741905,Li2Al1Ag1,0,63.02401751,,3.06332522,-11.38072769,520,1.74E-05
mp-31169,225,1.725184895,6.595294286,Sc1Al1Ag2,0,72.4294685,,5.02312058,-17.05099562,520,1.02E-05
mp-31170,225,4.879674205,11.23642629,Cd2Ag1Au1,0,78.27361833,,3.59407589,-8.46723773,520,4.43E-05
mp-31171,225,2.578273241,11.13651531,Zn2Ag1Au1,0,64.95913765,,4.00878526,-9.24948312,520,7.30E-06
mp-31184,227,-24.18975001,6.117736345,Al2Fe4,0.140985952,75.27931594,,6.75682133,-41.92683828,520,3.47215535
mp-31185,225,-3.382826084,7.019574062,Mn1Al1Fe2,0,45.79996867,,6.91320171,-30.55779915,520,2.0093423
mp-31208,225,2.589128581,10.15575073,Li1In2Ir1,0,70.11093479,,7.97412527,-17.4975682,520,3.80E-05
mp-31209,129,0.226844272,4.207406716,Ca2Be4Ge4,0.034317929,160.5380123,,4.2561812,-40.05403327,520,2.30E-06
mp-31217,65,-0.890444975,8.208269791,Cu8O1,0.115764721,106.0799122,,6.35118645,-37.93343947,520,1.50E-06
mp-31220,162,35.04702721,4.572880805,Al2Si2Te6,0,318.0031769,,4.07303564,-39.8794137,520,5.10E-06
mp-31235,189,16.59390589,5.379284504,Ba3Na3Bi3,0,341.9966167,,2.5242471,-28.27099766,520,0.0002196
mp-31284,113,22.27324019,5.539275693,Na2Sn10,0.007035996,369.6470128,,5.62708499,-43.53550343,520,6.70E-06
mp-31286,185,48.169267,2.89582135,K18Bi6,0.000587302,1122.568297,,0.53117158,-52.134678,520,0.000160467
mp-31297,189,6.348015315,9.925068633,Sc3In3Pt3,0,178.1112368,,6.96961421,-53.60097403,520,5.73E-06
mp-31322,2,-221.7149905,5.084282617,La6Os1I10,0,748.8038395,,4.72568275,-78.87968795,520,0.0001012
mp-31326,189,7.630616463,3.873200102,Mg6In3,0.003200082,210.1971758,,5.08315976,-18.55834836,520,0.000256767
mp-31328,225,1.607207474,9.579944221,Mn1In1Pd2,0,66.31726184,,6.30313526,-23.84318742,520,0.7402353
mp-31337,221,4.509175535,10.88686955,In1Pd3,0.022606144,66.20851494,,6.16077306,-20.0536452,520,0.0004938
mp-31339,225,3.144220205,8.63833346,Sc1In1Pd2,0,71.62723581,,6.57046152,-22.76838261,520,5.00E-07
mp-31347,189,6.833142004,7.839959149,Y3In3Rh3,0,194.8364769,,6.15072848,-56.43673439,520,0.000268733
mp-31348,194,3.20176936,4.870411412,Sc4In2,0,139.6029356,,5.65794173,-33.07531681,520,0.65242235
mp-31349,225,16.79682288,3.850703826,Sr3In1,0.125179491,162.8660868,,2.97382144,-8.33520412,520,0.0010812
mp-31368,63,10.51572737,2.281792028,K2Cl2O4,0.266353227,155.0803917,,1.29482309,-31.2227662,520,0
mp-31383,189,4.249592311,13.2341592,Hf6Co1Bi2,0,194.2124722,,6.0306336,-76.90464062,520,0.0014113
mp-31406,166,20.20932955,6.978951033,Bi2Te1Se2,0.106118317,167.3829386,,3.42782113,-19.44041736,520,5.00E-07
mp-31441,216,-1.035340505,8.4778765,Li2Ga1Ir1,0,54.02451889,,3.76486008,-17.40140706,520,3.29E-05
mp-31442,216,-1.09822943,6.083683154,Li2In1Rh1,0,63.21663454,,4.62510395,-15.4277121,520,3.34E-05
mp-31443,216,-4.937739872,8.442812979,Li2In1Ir1,0,63.11820579,,5.12332001,-16.53290951,520,0.0001258
mp-31451,216,1.30821545,9.832642033,Zr1Co1Bi1,0,60.65124665,,5.58871442,-20.80727111,520,3.50E-06
mp-31452,216,4.17526283,9.57054233,Zr1Ni1Bi1,0.074910738,62.27064128,,7.30366689,-19.13428795,520,0.0002467
mp-31453,216,3.365952431,8.703862386,Nb1Sb1Rh1,0.075769556,60.58695339,,7.73935243,-22.59848045,520,0.8634802
mp-31454,216,1.667965299,11.28853004,Ta1Sb1Ru1,0,59.39559279,,7.29650759,-26.39631509,520,1.87E-05
mp-31457,216,0.826249296,8.129979523,Zr1Sb1Ru1,0,64.14517111,,6.29872978,-23.64695698,520,4.51E-05
mp-31458,216,0.034991022,7.695081851,Ti1Sb1Ru1,0.092543398,58.41431517,,7.06355978,-22.65887658,520,0.0001192
mp-31459,216,2.260066205,11.29596547,Ta1Co1Sb1,0.094444578,53.16226621,,8.55724888,-23.46583454,520,0.0012452
mp-31460,216,2.351785789,8.477408544,Nb1Co1Sb1,0.017473951,53.59217658,,8.08406911,-21.96419439,520,0.0453791
mp-31468,62,1.132219168,2.335579173,Li4Ca4N4,0,173.5510548,,2.00163755,-56.77383543,520,5.43E-06
mp-31473,164,39.13630308,8.494735952,K2Hg7,0,289.7631196,,1.45012538,-6.32581922,520,1.29E-05
mp-31474,164,41.76397046,8.476760951,Rb2Hg7,0,308.5444941,,1.48149265,-6.07093366,520,5.24E-05
mp-31495,51,45.33865739,8.702016329,Ag2Te4Au2,0.211833325,213.7342801,,5.0459025,-23.70738456,520,5.92E-05
mp-31498,194,6.774004567,8.705563229,Ba2Pt2,0,126.8111961,,3.48852674,-19.01688497,520,2.50E-07
mp-31509,63,16.96650695,5.565138086,Ba4In4,0,300.9424814,,4.14881369,-22.01562486,520,3.11E-05
mp-31510,11,4.668506692,7.50394408,Nb2Cu2Te4,0.026152527,182.1881508,,6.79684193,-43.53930274,520,6.95E-06
mp-31519,5,1.40815817,3.385885973,Li1Co1P2O7,0.02262187,117.6136338,,1.99219596,-73.8402974,520,3.9566631
mp-31521,63,4.946325792,3.864141803,Co2P2O8,0.013271889,132.2749207,,2.1029152,-80.70315754,520,3.99437855
mp-31526,166,-0.054761652,4.880569506,Co1H1O2,0,31.28115504,,3.25860959,-22.4489994,520,3.792073
mp-31529,5,-4.328161518,3.210810188,Co1P2O7,0.093559383,120.4370637,,1.02898123,-66.68269811,520,5.0518422
mp-31540,63,-0.271928324,3.761050108,Li2Co2P2O8,0.03522229,142.0296562,,2.96455313,-92.55201341,520,2.99930835
mp-31541,146,0.560918579,3.10992802,Li6Co6P6O24,0.006694895,515.2987306,,1.49858227,-278.8541908,520,2.9999129
mp-31584,2,0.049379824,2.9482005,Na6Co2O6,0,198.1479782,,1.01103876,-66.3753423,520,3.9997556
mp-31623,12,-1.89826119,2.669835244,Ca2Co1O3,0.181398167,116.3614586,,0.81961428,-36.79795577,520,3.0031428
mp-31624,225,4.848925557,6.556700243,Sr2Ta1Cr1O6,0,127.6878877,,3.25371408,-80.5695998,520,3.0000032
mp-31628,12,3.106977198,7.765335304,Cr2Re2O8,0.022660327,129.245175,,4.69390797,-99.84155178,520,2.82557345
mp-31632,5,-2.254749596,3.235393373,Cr1P2O7,0.062443136,115.9615512,,1.90961522,-72.35845754,520,1.9983403
mp-31645,43,0.260654223,3.362670073,Cr2P2O8,0.115372218,145.1496596,,2.29745546,-89.761662,520,3.00005485
mp-31646,15,-2.816732468,3.03653898,Li2Cr4P6O24,0.089955162,432.940184,,1.26138408,-255.383283,520,3.99930205
mp-31647,43,0.600969654,3.321262787,Li2Cr2P2O8,0.021128121,153.8999026,,3.34991106,-99.62504677,520,4.0000039
mp-31649,5,0.378688431,3.27279552,Li1Cr1P2O7,0.018360465,118.1580191,,2.54610973,-79.30256709,520,2.9998855
mp-31658,15,-14.47994785,3.440352301,Cr8P6O24,0.031628051,475.8100957,,3.96767432,-289.3105243,520,15.00220525
mp-31664,63,7.007246418,3.385611453,Li2Cr2P2O8,0.023156828,150.9748022,,4.44831529,-99.59664487,520,3.99984915
mp-31665,2,1.62976093,2.965500911,Li2Cr4P6O24,0.036763383,443.3111923,,,-257.2981871,520,4.0000003
mp-31706,148,2.828552161,2.954741606,Li6Cr4P6O24,0,460.5285781,,1.40311866,-283.078775,520,5.99940735
mp-31718,15,-3.141243698,3.212373779,Li6Cr4P6O24,0.037201921,423.5942154,,2.40751677,-281.5906981,520,6.00034075
mp-31725,59,12.99475083,4.184893476,Cr2Br2O2,0.03256069,117.3711566,,1.18967878,-36.76519821,520,3.0005327
mp-31728,61,2.213973286,3.24727293,Li8Cr8P8O32,0.023777698,629.6261885,,3.11867218,-398.3518108,520,4.000895563
mp-31750,62,-1.436139335,3.578097986,Cr4P4O16,0.032803285,272.8211572,,2.55214968,-181.5049784,520,3.0006418
mp-31753,12,5.12194655,3.036393863,Rb1Cr3O8,0,202.0450359,,-1.06406717,-81.29462447,520,3.0009372
mp-31785,5,0.873043464,3.2791867,Li1Fe1P2O7,0.01684458,119.8767623,,2.00088658,-76.35576211,520,4.9999372
mp-31793,5,-0.492436081,3.151394014,Fe1P2O7,0.076863851,121.0805381,,1.3724766,-69.16643666,520,3.9455654
mp-31899,225,5.454247688,7.139710925,Ba2Mn1Re1O6,0,142.2901055,,4.47124198,-75.72064296,520,3.9823466
mp-31907,164,17.20196795,4.582581909,Mn1Re2O8,0.00138075,201.2349805,,,-90.74186254,520,5.0000003
mp-31923,43,0.899779265,3.340955519,Li2Mn2P2O8,0.047548006,155.9172056,,3.06212255,-99.88576914,520,5.00000045
mp-31927,63,2.555671921,3.682500671,Mn2P2O8,0.012166555,135.1964032,,2.74159384,-88.98100997,520,4.00011925
mp-31928,5,-0.714416081,3.218948709,Li1Mn1P2O7,0.014451431,121.652218,,2.00250345,-78.18648571,520,4.0000078
mp-31931,161,3.374008988,3.105044051,Li2Mn8P6O24,0.039463684,547.2024387,,1.74701721,-299.8766547,520,20.0015168
mp-31935,5,-0.151886751,3.4198034,Mn1P2O7,0.050869889,111.1369293,,1.83750653,-71.38988944,520,3.0000048
mp-31939,63,0.65361179,3.432325242,Li2Mn2P2O8,0.021294594,151.7666339,,3.22336786,-100.2533169,520,4.9998318
mp-31942,43,0.253749162,3.425568466,Mn2P2O8,0.04887545,145.3367085,,1.65570327,-88.54050322,520,3.9998673
mp-31962,2,7.927820053,3.240922164,Li6Mn9P8O32,0.043952252,663.9545323,,2.49992487,-399.6888302,520,45.0079693
mp-31999,186,-52.09388619,2.723657543,Na4Mn2O8,0.078823769,201.0884968,,0.58693764,-76.03958554,520,1.0001323
mp-32010,9,-4.534453621,3.597772049,Mn8P6O24,0.021292366,465.8538815,,2.91600406,-289.2216595,520,19.0027885
mp-32011,227,3.543905721,5.003012216,Mn4Ni2O8,0.169540191,154.3816868,,,-92.64938581,520,5.9999995
mp-32012,15,-3.207602542,3.147168991,Li2Mn4P6O24,0.084712679,423.930398,,1.3790284,-251.2347309,520,6.0030994
mp-32047,2,8.400489317,3.251110726,Li2Mo4P6O24,0.00102003,494.1455786,,1.76155782,-259.4327364,520,3.9998534
mp-32056,19,1.311319722,2.859432037,Mo4P8O32,0.003504094,664.0751282,,-0.00902905,-312.5071341,520,0.00033875
mp-32057,5,0.470800231,3.535593118,Li1Mo1P2O7,0.024404511,130.014281,,3.32939792,-78.32871707,520,2.9999736
mp-32059,5,0.612198973,3.56187845,Mo1P2O7,0.037555336,125.818947,,2.90180935,-72.99607165,520,1.9999757
mp-32098,148,7.296914474,3.266221294,Li6Mo4P6O24,0,505.9746563,,2.29302037,-279.5076361,520,5.9989508
mp-32306,225,5.821718383,7.529547616,Ba2Re1Ni1O6,0.064348707,135.7513342,,4.86818821,-69.27106874,520,3.0292748
mp-32310,164,7.608446535,7.702196388,Ba3Ta2Ni1O9,0,210.540452,,2.65949011,-118.203657,520,1.9997405
mp-32311,147,5.000770789,4.875782851,Re2Ni1O8,0,190.4128471,,-1.90590678,-84.20994189,520,2.0001067
mp-32322,146,10.96812916,2.456851207,Li1Ni1P3O9,0.028544181,204.4879886,,-0.30622722,-94.04426088,520,1.9997075
mp-32324,63,1.036268982,3.860351458,Li2Ni2P2O8,0.009477334,138.1698743,,3.28043365,-87.69017614,520,1.99970725
mp-32328,146,8.936366499,2.353385606,Ni1P3O9,0.035664036,208.5806758,,-0.6811535,-87.19771637,520,0.9996708
mp-32331,5,-1.217986001,3.115103304,Ni1P2O7,0.154779293,124.0094869,,2.11088033,-63.48369033,520,0.0001343
mp-32338,5,0.801858924,3.288245233,Li1Ni1P2O7,0.05641899,120.9849435,,,-70.7297261,520,0.9999999
mp-32384,8,1.919509293,3.710739146,Li4Ni7P6O24,0.043310141,451.2750264,,6.08022927,-255.2359874,520,14.000188
mp-32385,12,17.30717412,3.421116977,Ni7P6O24,0.056016972,476.0026363,,,-230.0289791,520,10.0000006
mp-32403,164,0.549774957,3.864830079,Ni1H2O2,0.015380697,39.83238151,,,-24.5231566,520,2.0000004
mp-32405,5,-0.878604383,3.172419771,Li1V1P2O7,0.021754616,121.3445442,,3.19904159,-79.71074293,520,1.9999926
mp-32425,63,0.766449958,3.415607881,Li2V2P2O8,0.009589513,148.6235037,,5.05611109,-100.284362,520,3.00000685
mp-32432,227,1.801062708,3.59023965,Mg4V2O8,0.098634937,151.2877646,,4.52552592,-93.79091586,520,1.00001175
mp-32436,2,7.286752115,2.870546847,Li2V4P6O24,0.008859125,455.5351284,,2.4510595,-263.2517601,520,1.99930135
mp-32449,15,1.41486292,3.193381487,V2H4O6,0.02072276,104.9925808,,,-76.16989413,520,1.00000005
mp-32450,71,10.7479006,3.889864818,V1Br2O1,0.01078966,96.79652594,,,-20.25922335,520,1.0000005
mp-32453,62,0.830753508,3.288427953,V4P4O16,0.023932942,294.7232017,,3.03598862,-183.3554761,520,1.9999831
mp-32455,5,-2.648367443,3.21014255,V1P2O7,0.033341124,116.3281767,,2.20178199,-73.93485173,520,1.0000026
mp-32469,2,-6.835284511,2.888926307,V4P6O24,0.014149434,444.6576988,,,-251.2311285,520,1
mp-32472,26,-1.354593308,2.976295204,Li2V2P4O16,0.11929661,276.534034,,1.5074378,-167.5346788,520,0.0004817
mp-32493,58,4.134887748,3.184979093,V2H4O4,0.1118549,88.58648641,,3.02754077,-60.82225603,520,3.00000285