material_id,spacegroup.number,delta_volume,density,full_formula,e_above_hull,structure.lattice.volume,band_gap.optimize_structure_gap,efermi,final_energy,encut,total_magnetization
mp-2802,221,0.352906891,13.5954944,Hf1Ru1,0,34.14515723,,6.76135166,-20.88507661,520,9.60E-06
mp-2807,225,-0.128480647,3.355317157,Sc1P1,0,37.57742773,,5.4802907,-14.72582357,520,1.80E-06
mp-2808,221,0.414548294,8.907804898,Zr1Rh1,0.070602645,36.18844567,,5.88822822,-17.36911725,520,1.36E-05
mp-2811,186,19.80607877,8.914409877,Mo8N8,0,163.8432966,,9.80274189,-159.3554694,520,1.00E-07
mp-2815,194,24.59590858,4.053378872,Mo2S4,0.000315487,131.151068,,3.7814502,-43.4182414,520,5.70E-06
mp-2819,221,11.47164339,6.879042768,In1Te1,0.21827991,58.51752439,,6.69754479,-6.03909233,520,0.0002681
mp-2824,62,6.505537101,8.982676311,Al4Pd8,0,177.3337984,,6.49582601,-66.38967442,520,3.75E-07
mp-2828,225,0.18086068,13.68400058,Hf1N1,0,23.35927154,,8.27210647,-21.7872391,520,8.86E-05
mp-2841,191,5.97247324,3.291251969,Sc1Si2,0.184798237,51.02167411,,7.80455303,-18.2997284,520,0.0002059
mp-2845,194,4.411395201,12.27576956,Sb2Pt2,0,85.71875335,,8.14980802,-22.05497081,520,1.80E-06
mp-2850,59,0.795533841,12.64795925,B4Os2,0,55.62771189,,8.69751375,-50.44581146,520,2.00E-07
mp-2851,140,1.246269,7.992846295,V2Sb4,0.033472279,122.3506117,,9.43245531,-35.04935039,520,0.0194153
mp-2852,220,0.285944043,3.776865929,C6N8,0.492908917,80.94933751,,10.28556406,-112.0718942,520,0
mp-2857,225,-0.025888419,4.245782773,Sc1N1,0,23.06046361,,5.51595266,-18.49415373,520,1.50E-06
mp-2858,14,10.89745203,5.563610892,Zr4O8,0,147.1104101,,2.59594949,-114.0546289,520,2.00E-07
mp-2861,221,2.740399131,6.802617545,Ca1Tl1,0,59.67372555,,4.86630518,-5.25752358,520,8.91E-05
mp-2874,12,5.855768163,4.835007411,In2Si2O7,0.004806764,136.6217305,,3.66460099,-75.70990044,520,4.60E-05
mp-2878,62,11.62476584,2.345559059,Li12P4O16,0.00108947,327.9065739,,0.44205676,-200.7785868,520,1.53E-05
mp-2885,216,7.607567874,4.96287835,Ga1Mo4S8,0.040110868,237.5612733,,5.78039436,-89.46360365,520,0.8295851
mp-2889,223,8.229451618,6.202649059,La2Pd6S8,0,313.9891932,,6.00243696,-89.44834113,520,2.98E-05
mp-2894,216,0.184790748,8.635190296,Sc1Sn1Au1,0,69.34928974,,6.09073158,-15.89891997,520,1.71E-05
mp-2908,227,4.58921939,4.453847872,Al4Zn2O8,0,136.7323341,,4.01866731,-93.87932467,520,1.85E-05
mp-2910,127,8.394742025,2.859641097,K2Al2F8,0.013234982,164.9986866,,-1.5235805,-64.98340794,520,1.22E-05
mp-2918,194,2.23488605,4.865677528,Y2Cu2O4,0.000309721,125.8971658,,2.43387747,-59.94332051,520,1.15E-06
mp-2920,167,1.007591835,6.371511363,La2Al2O6,0,111.4852407,,7.68911133,-80.14937415,520,0
mp-2927,225,3.379842358,7.559220526,Li1Ag2Sn1,0,74.99279899,,4.76589912,-12.5044556,520,0.0002886
mp-2928,148,16.16422881,5.144586007,Fe2P2Se6,0.139512085,208.9631433,,3.06144832,-49.93177739,520,0.01271145
mp-2930,221,-2.20652918,6.910163936,Mn3Zn1C1,0.040490986,58.20972463,,5.20729266,-38.12240008,520,7.0214726
mp-2940,141,-0.743065767,6.443106817,Lu2P2O8,0,139.1388351,,2.17052871,-96.18112966,520,5.00E-08
mp-2968,164,1.402869582,5.163066399,Sr1Mn2Sb2,0.204649643,141.8390503,,4.35833609,-29.26307963,520,9.0019629
mp-2977,25,15.97597056,6.887895661,Cu1Ag1Te2,0.052996281,102.8484706,,4.79073966,-13.22493863,520,3.00E-07
mp-2979,33,12.23318754,5.868836475,Zn4Ge4N8,0,187.9439643,,3.09570138,-93.30021767,520,2.25E-06
mp-2987,225,-0.754951893,5.166909463,Li2Mg1Tl1,0,77.95713395,,3.69073658,-8.55710836,520,0.000228
mp-2988,216,-0.667031762,5.714002103,Li2Ga1Rh1,0,54.20158429,,3.13902441,-16.14987804,520,1.33E-05
mp-2998,221,3.00103055,5.891748638,Ba1Ti1O3,0.014198362,65.72323018,,3.04546482,-39.98498769,520,0
mp-3000,221,-2.061275575,7.089649175,Cr3Ga1N1,0.021522323,56.14679764,,6.79606644,-41.55653992,520,0.0114852
mp-3006,164,51.11432025,3.072073253,P2Pd3S8,0,344.7090493,,1.10704978,-63.65360681,520,3.80E-05
mp-3020,221,3.266560948,6.443756262,Ba1Nb1O3,0,71.69954634,,5.51894756,-40.68432148,520,4.00E-05
mp-3042,225,4.121487332,2.606023783,K2Si1F6,0,140.3560167,,-2.66881203,-47.22131102,520,1.49E-05
mp-3043,148,7.385809319,5.267960826,Sr1Mo6S8,0.002430954,289.9282376,,5.56308329,-113.21774,520,1.67E-05
mp-3054,15,6.000711933,1.996752387,Li4C2O6,0,122.8982872,,-0.18689516,-78.60583296,520,0
mp-3056,166,2.927840982,7.638887688,Na1Tl1O2,0,56.38217662,,3.20102155,-17.90527921,520,2.00E-07
mp-3070,12,-6.936185277,2.440439234,Na4C2O6,0.004023683,144.2346423,,1.11479908,-74.17750852,520,0.00024135
mp-3076,62,10.02385605,10.24601751,La4Sn4Pt4,0.026213074,293.4701772,,8.57047077,-72.70867223,520,8.78E-06
mp-3088,221,2.635504865,9.639873756,La1B1Rh3,0,78.96844535,,7.53183829,-37.19485469,520,0.0179241
mp-3098,194,-43.92411853,4.964065293,Al2Cu2O4,0.000407301,81.97304293,,6.13012998,-52.05663469,520,8.34E-05
mp-3104,129,4.384284533,5.679936346,Ba2Zr2N4,0,150.0140764,,3.12683922,-64.23419773,520,5.66E-05
mp-3107,160,4.591963545,4.632149687,Ga3P1O7,0.016344413,126.2350894,,1.53199829,-71.02344321,520,7.54E-05
mp-3123,60,57.39174555,5.525360262,P8Pd8Se8,0,520.1671583,,3.43103741,-121.8820168,520,2.35E-05
mp-3136,221,3.789358475,4.222755596,Na1Nb1O3,0.040656624,64.44913972,,1.40088781,-38.23007748,520,0
mp-3143,63,6.624525489,2.59487786,Na4S2O8,0.003888606,181.7939257,,0.76700113,-78.51369658,520,0
mp-3158,216,3.393898179,8.527724565,Li2Sb1Pt1,0,64.39976225,,5.73580519,-16.72119358,520,9.75E-05
mp-3161,216,0.223291967,1.966694013,Li1Al1Si1,0,52.35525619,,4.95706657,-11.73242174,520,0
mp-3163,221,3.354818914,6.86998406,Ba1Sn1O3,0,73.48813545,,4.06477978,-31.64384996,520,5.09E-05
mp-3165,129,7.467164717,4.418032438,Rb2Mn2Sb2,0.169941673,197.072623,,3.30863605,-29.19558749,520,4.54087265
mp-3173,187,0.879994002,2.351634251,Ca1Al1Si1,0.0030532,67.18393857,,5.19165,-12.33009161,520,0.0003087
mp-3201,216,0.39594901,5.538392639,Li2Ga1Pd1,0,56.97391854,,2.78520006,-14.21244174,520,0.0001158
mp-3205,59,26.10847394,3.000784811,Ca2C2O6,0.169819487,110.7698254,,2.8132784,-73.18786848,520,1.06E-05
mp-3208,129,9.843957574,7.117644342,Zr2Ge2Te2,0,135.9964976,,6.21503227,-37.34451627,520,2.00E-07
mp-3216,164,-23.58031295,4.27297949,Li2Zr1N2,0,51.73204346,,3.98332342,-34.61895159,520,0
mp-3237,14,7.794294787,3.433869416,Na4Cu2F8,0,179.4254564,,0.18645937,-59.99287374,520,1.0000182
mp-3247,63,15.13311133,3.530344905,Cs4Ti2S6,0,385.5770337,,1.8338977,-60.67827994,520,4.30E-06
mp-3250,194,5.238152813,7.716515354,Ni4Sb2Te4,0.347919788,212.7598075,,7.86277415,-46.62396075,520,7.65E-06
mp-3255,59,28.67261446,5.323013365,Sr2Cu4O6,0.016744449,163.9073635,,3.42520688,-65.49557206,520,3.21E-05
mp-3271,221,11.08833503,4.148159493,Ti3Al1C1,0,73.09342894,,6.68262134,-39.61868145,520,6.49E-05
mp-3274,129,2.301047396,9.471642348,Ni2Ge2Pd2,0,83.3643814,,6.41873428,-33.93799393,520,8.05E-06
mp-3277,82,4.376947035,3.437811037,B1As1O4,0,72.32301017,,-0.0366956,-41.15195043,520,0
mp-3288,152,19.63232901,3.442763577,Cs3N3O6,0,258.8809371,,0.27765165,-68.44033203,520,8.64E-05
mp-3289,216,-2.203144761,7.317755535,La1Mg1Ni4,0,90.31021635,,7.73765637,-31.51730081,520,0.0096313
mp-3291,13,20.78512829,7.649715236,Ag2Te8Au2,0,353.9292951,,5.15391142,-38.23465646,520,4.00E-07
mp-3307,216,-0.717487836,3.829350662,Ba1S1O4,0.132064654,101.2058118,,0.95365539,-38.53412328,520,8.20E-06
mp-3312,2,49.38759313,4.796001681,Cs2Sb4Se8,0,479.3717289,,2.63928553,-53.36578493,520,4.00E-07
mp-3315,223,10.55680001,7.062805812,Ca2Pd6O8,0,199.0611974,,4.3374253,-93.33976123,520,1.40E-06
mp-3319,227,7.353072952,6.010337931,Mg2Rh4O8,0.01137652,162.5156923,,4.42126722,-89.72404225,520,1.95E-06
mp-3323,221,2.285701933,5.092974708,Sr1Zr1O3,0.054920909,73.96076961,,2.09522155,-41.05641042,520,5.00E-07
mp-3336,167,-0.064502473,7.00714815,La2Ga2O6,0.037582097,121.629683,,5.76705156,-72.41180039,520,6.20E-06
mp-3338,33,9.084761357,3.782712731,Na4Ga4O8,0,218.9840406,,0.08876446,-87.01414732,520,3.45E-06
mp-3340,225,0.693731643,10.24116484,Ta1Al1Co2,0,52.82569587,,7.01678396,-31.67661409,520,0.0002631
mp-3342,12,26.6570302,2.829460237,Zn2P2S6,0.02501071,226.0380887,,2.33573579,-42.19131223,520,2.20E-05
mp-3345,31,4.759114268,4.403425307,Cu6As2S8,0,297.0200582,,4.95264149,-70.12232343,520,2.85E-06
mp-3348,70,5.21210784,9.287769712,Li4B4Ir4,0,150.1595033,,5.03406291,-75.84839677,520,1.03E-06
mp-3363,127,1.241821297,6.321146827,Sc4Ni4Sn2,0,171.2822253,,7.00041123,-62.53279831,520,0.00012325
mp-3380,76,2.34925692,7.188236721,La4Rh4C8,0.038800841,245.6374466,,8.1121258,-128.2979915,520,2.11E-05
mp-3382,127,29.73608534,4.1037851,Ca2Si2O6,0.244292675,94.00640292,,6.34947204,-72.4594499,520,5.50E-07
mp-3392,136,62.03589341,9.815611517,Ba4Tl8Hg8,0,641.0134678,,3.8684567,-35.48712229,520,5.95E-06
mp-3395,11,8.126044293,4.425489668,Sr2Se2O6,0,161.0287245,,1.59515279,-59.05544401,520,0.0001184
mp-3400,191,-2.194580311,8.337221135,Lu1Mn6Ge6,0,187.3081516,,5.50268487,-91.36224879,520,11.6580403
mp-3411,176,25.86613024,7.237249325,Tl2Mo6Se6,0,334.566692,,5.21761757,-97.55782043,520,3.30E-06
mp-3427,92,4.80513716,2.530052072,Li4Al4O8,0,173.0635627,,1.4348441,-106.0271429,520,0
mp-3432,216,1.354296578,6.561428168,Sc1Ni1Sb1,0,57.04565424,,7.42672219,-18.93909665,520,7.00E-07
mp-3433,216,-64.52259612,6.80828957,Y2Mg2Ni8,0,169.7465299,,6.10919489,-67.10950047,520,0.00082155
mp-3439,11,14.25764872,4.08376474,Sb2P2O8,0,176.2544665,,2.64199292,-81.4099559,520,0.00013485
mp-3442,140,-2.313450901,3.924547027,Ca2Ti2O6,0.018514506,115.0395137,,3.31576751,-80.74271821,520,5.00E-08
mp-3443,227,-0.589538388,6.265985888,Cd2Ga4O8,0,167.408259,,1.50057448,-76.54069845,520,1.62E-05
mp-3448,221,3.092956521,3.001906011,K1Mg1F3,0,66.59982851,,-1.54635988,-24.79780034,520,2.00E-07
mp-3451,36,8.291442069,4.19367679,Ba2V2S6,0,225.2737971,,4.44651932,-60.49282873,520,0.6443534
mp-3464,225,1.194867619,9.177508731,Fe1Si1Ru2,0,51.76036846,,8.59560857,-33.87443974,520,0.0043034
mp-3465,191,1.713465396,9.339794324,La1B2Rh3,0,83.42773989,,8.42752663,-44.36319175,520,4.50E-06
mp-3468,61,64.80826875,3.090694434,Na8As8O16,0,558.3752452,,0.4490377,-175.5952114,520,2.16E-06
mp-3469,194,1.613441886,8.502890922,Zr2Ni4Sb2,0,129.0369631,,8.14971227,-52.91895408,520,1.97E-05
mp-3471,12,-1.092184106,7.270292616,La2Ni5B4,0,140.3571667,,8.69642962,-70.71816547,520,3.36E-05
mp-3474,167,2.031687655,7.050084879,La2Cu2O6,0,117.9791341,,7.04808382,-67.85120378,520,5.40E-06
mp-3477,216,1.70927866,5.506458727,Mg1Ag1As1,0.13546441,62.45193462,,4.1690364,-9.73569659,520,6.50E-06
mp-3481,186,8.869781708,3.940266297,K2Sn2As2,0,196.1578511,,3.18453692,-21.94544708,520,0
mp-3486,186,11.33855865,4.077145652,K2Sn2Sb2,0,227.7250391,,3.58566655,-20.52904702,520,1.00E-07
mp-3487,166,-41.62098194,3.354663901,Ca3P2O8,0.042465083,153.535667,,2.94864788,-93.61693351,520,8.60E-06
mp-3498,225,3.451850346,10.84473335,Hf1Ga1Ni2,0.009478544,55.98042119,,6.52796595,-26.77444522,520,7.00E-05
mp-3499,225,1.841698676,9.513235479,Mn1Sb1Pd2,0.01430352,67.99402083,,6.91810209,-24.95675301,520,0.0016909
mp-3504,225,0.630986052,9.165010084,Nb1Ni2Sn1,0.05203313,59.60960432,,9.07605635,-26.44521595,520,0.0008899
mp-3519,198,-0.019653701,4.80990896,Zr4S4O4,0,192.3477787,,3.97410884,-99.96018338,700,1.29E-05
mp-3521,63,9.706505314,2.413682726,Na2B2F8,0,151.070276,,-3.3234079,-66.38593475,520,0
mp-3522,216,2.096269992,5.728515375,Mg1Cu1Sb1,0,60.76046339,,6.72010282,-10.65150492,520,4.18E-05
mp-3525,166,11.77156317,5.922187619,Sb2Te2Se1,0.660369675,161.9773392,,5.40531014,-18.97563181,520,0
mp-3536,227,3.146613189,3.464624248,Mg2Al4O8,0,136.3713316,,4.20556966,-99.51054208,520,7.30E-06
mp-3539,225,0.881321189,8.64990639,Nb1Ga1Ni2,0.010130345,53.75524055,,6.67999898,-26.02948252,520,3.24E-05
mp-3553,194,15.53774892,6.109466838,K2Te2Au2,0,197.6865506,,2.90658271,-19.13403138,520,2.16E-05
mp-3555,198,11.60566254,8.966769294,La4Si4Ir4,0,266.0841773,,8.18840107,-88.79184356,520,3.53E-06
mp-3567,166,1.853166044,4.53108791,Na1V1Se2,0.002934141,84.96813387,,3.90654229,-20.81012524,520,0.0002382
mp-3574,225,-7.888847455,6.685943952,Mn1Al1Cu2,0.039588363,51.91067961,,7.26716653,-21.62744242,520,3.4999377
mp-3576,225,0.003748023,11.08926418,Hf1Ga1Co2,0,54.81780476,,5.58310936,-29.1308352,520,1.0142822
mp-3589,82,1.965709212,2.653530479,B1P1O4,0,66.19699425,,0.37027462,-45.71212386,520,0
mp-3608,189,6.56199092,9.649041441,Lu3Ag3Sn3,0.011171586,207.3101722,,5.60128739,-38.67699598,520,1.67E-06
mp-3614,221,2.051688863,6.796249814,K1Ta1O3,0,65.49172994,,1.58987451,-41.1398279,520,3.00E-07
mp-3622,14,11.49136188,3.749056432,Na4Pd2F8,0,202.3206378,,0.24278911,-60.36301744,520,0.00013885
mp-3632,194,5.281532566,3.838068196,Y4S4F4,0.026262029,242.2306196,,2.11656652,-85.44054615,520,1.73E-05
mp-3635,14,10.22645831,2.079064283,Li4B4O8,0,158.9429367,,-0.25091762,-112.2232961,520,0
mp-3637,166,1.224735039,5.055686532,Y2O2F2,0,81.39225091,,1.60019625,-49.72932194,520,0
mp-3642,194,2.05323499,4.470860588,Sc2Cu2O4,0,104.3677891,,3.41067141,-59.68970628,520,5.50E-06
mp-3647,33,11.48033584,2.834726454,Li4Ga4S8,0,329.8998155,,1.22103818,-69.23152759,520,0.0001915
mp-3648,225,2.082867433,10.99800113,Zn2Cu1Au1,0.010485334,59.08525375,,4.7610548,-10.47696216,520,4.56E-05
mp-3654,221,3.811075592,3.288665806,Rb1Ca1F3,0,92.17004426,,-2.3613048,-25.92665528,520,2.79E-05
mp-3657,225,-13.08218954,6.781236622,Ti1Co2Si1,0,47.46093544,,8.31451012,-30.18535407,520,1.9859366
mp-3666,161,3.858288433,7.178368993,Li2Ta2O6,0,109.1333437,,1.26171525,-84.36967554,520,1.25E-06
mp-3676,216,0.688562172,7.489454908,Mg1Cu4Sn1,0,88.06574767,,7.3590657,-22.76990989,520,4.30E-06
mp-3677,33,3.54533751,3.074086456,Mg4Si4N8,0,173.7281196,,5.44106518,-113.5755244,520,0
mp-3679,198,-24.05203792,6.755620349,Ni4Sb4S4,0,208.949042,,8.51614478,-59.92947256,520,3.50E-07
mp-3698,187,0.267209924,3.162716619,Sr1Al1Si1,0,74.91578495,,4.62078931,-12.05449576,520,0.0003428
mp-3699,14,1.080497615,6.270378004,Co4As4S4,0.198581328,175.7573766,,6.88456827,-66.48264372,520,2.70E-06
mp-3700,88,20.69076283,3.808360403,Li2Y2F8,0,149.8533579,,-1.94888555,-76.822699,520,1.10E-06
mp-3702,123,1.782685913,15.02316659,Fe1Cu1Pt2,0.022366542,56.32252079,,6.77708355,-25.3964216,520,4.041667
mp-3717,221,2.900215426,11.27384245,Lu1B1Rh3,0,72.83474343,,5.49552996,-37.45306051,520,0.0039719
mp-3721,140,8.102463639,7.491654394,Sr2Hf2O6,0.006085968,139.2453259,,2.20274327,-86.92702753,520,0
mp-3726,216,0.116737852,8.263637158,Li2Ga1Pt1,0,56.00124445,,3.56566082,-15.5596939,520,0.0003153
mp-3731,161,5.71379071,4.412866644,Li2Nb2O6,0,111.2670639,,0.8885555,-78.58173237,520,3.50E-07
mp-3732,194,5.626937993,4.634879667,Ti4C2S2,0,100.1792848,,8.1960996,-68.3065335,520,7.20E-06
mp-3736,225,-7.536728695,6.674110965,Zr1Al1Cu2,0,61.0307712,,6.87524336,-21.91798722,520,3.45E-05
mp-3744,194,2.632485801,5.414800712,Na2Nb2O4,0,90.7089107,,5.67627669,-60.1088184,520,0
mp-3747,194,1.830015885,4.20786306,Ti6Al2C4,0,153.5921834,,6.62633098,-100.9382376,520,3.71E-05
mp-3748,166,-7.259434286,4.978572137,Al1Cu1O2,0,40.86709263,,6.11821958,-26.02994655,520,0.000272
mp-3759,148,8.852142918,4.764605923,Mg2Ge2O6,0.019762187,101.0299051,,2.80966468,-63.40568848,520,1.25E-06
mp-3762,215,-14.01945185,3.88140854,V1Cu3S4,0,158.2242431,,3.41353163,-42.77359207,520,9.92E-05
mp-3771,148,2.953054576,3.780007017,Mg2Ti2O6,0,105.5803905,,2.77438988,-78.24196883,520,1.30E-05
mp-3779,148,35.34344073,4.994813301,Cr2Si2Te6,0,307.7724517,,4.34937159,-50.78549652,520,3.0000895
mp-3787,63,-9.448168106,3.571667775,Rb2Fe4S6,0,272.7710457,,2.97929735,-68.86587206,520,0.0679356
mp-3791,225,0.738084536,7.798597984,Sc1Co2Sn1,0,59.94607998,,7.50653281,-26.15358274,520,1.0453512
mp-3802,194,0.892911463,12.60107758,Ta8Al2C6,0,207.366501,,7.7511511,-166.876462,520,0.0003673
mp-3803,194,1.396893183,12.6590842,Ta8Al2C6,0.071574644,206.4163035,,7.51562503,-165.7312677,520,0.00111995
mp-3807,227,0.043819618,4.851783585,Al4Cd2Se8,0.045688855,330.0787377,,2.86789485,-55.49729301,520,0.0001637
mp-3810,162,7.418436344,6.814355685,Hg1As2O6,0,108.7870686,,2.14003694,-48.38353462,520,2.10E-06
mp-3821,164,9.478912217,4.476145358,K2Pt1F6,0,143.6679543,,-1.15711935,-38.85329398,520,1.04E-05
mp-3833,164,0.710377212,2.314534099,Mg1Al2Si2,0.038771972,96.4519539,,6.07433465,-19.98641028,520,1.12E-05
mp-3834,221,3.049802356,5.958155245,Ba1Zr1O3,0,77.0743165,,2.17019493,-41.44524511,520,4.80E-06
mp-3835,148,8.513973183,5.325370773,Ba1Mo6S8,0.003973934,302.3021459,,5.27913639,-113.4694428,520,0.0001768
mp-3846,221,10.78063153,9.034316175,La1B1Pd3,0.144716737,86.19952215,,6.93258871,-29.95598435,520,8.70E-06
mp-3857,166,9.233135063,5.005985481,Ba3P2O8,0,199.6645509,,1.86960846,-93.48687139,520,4.38E-05
mp-3861,216,6.725783759,4.690958258,Al1Mo4S8,0.026681779,236.202024,,6.04862669,-90.98829649,520,0.7899334
mp-3862,164,1.578327153,3.617435764,Ca1Al2Ge2,0,109.8573735,,4.40591268,-20.70042813,520,5.00E-07
mp-3871,194,19.79856619,6.244639824,Ti4Sn2C2,0,120.435087,,8.38515945,-63.8240961,520,0.0002707
mp-3880,227,-13.12470982,5.676862578,Cr4Cu2Se8,0,282.785909,,3.91710775,-81.37733401,520,5.1504081
mp-3886,194,21.72377953,5.238952992,Zr4Al2C2,0.011968643,140.3754383,,4.8457366,-65.30600103,520,0.0001074
mp-3896,129,7.758460331,10.41006444,Y2Si4Ir4,0.023611195,168.9275688,,7.82670813,-80.66624011,520,4.00E-06
mp-3904,227,5.367401668,4.227101569,Mg4Ge2O8,0.000770213,145.5422193,,2.72390138,-87.92544145,520,1.25E-06
mp-3909,225,0.026655444,6.969835766,Zr1Al1Co2,0,56.24331288,,6.17602561,-28.55208983,520,1.0056687
mp-3915,166,5.733476204,6.131021639,Ba1Hg1O2,0,100.188788,,-0.1108787,-18.58038562,520,1.00E-07
mp-3924,194,2.777811556,5.527020488,Li2Nb2O4,0,79.22378056,,5.26247737,-62.55020262,520,1.14E-05
mp-3925,227,-0.197993706,4.836103702,Co4Cu2S8,0,212.6600772,,5.69045738,-75.34466343,520,7.35E-06
mp-3927,194,7.25366712,7.489534692,Ca2As2Au2,0,138.3348964,,4.88056839,-25.10012193,520,2.90E-06
mp-3930,227,-0.173184363,3.03506559,Sc4Mn2S8,0,298.846655,,3.7329557,-98.37487606,520,5.0001823
mp-3933,36,2.797401489,3.045476335,Mg4P2N6,0,132.608458,,5.40731787,-78.47130585,520,0
mp-3938,129,1.724500782,4.860704746,Zr2Si2S2,0,103.4266758,,7.52592585,-43.42961583,520,1.65E-06
mp-3941,13,4.290143993,3.866523363,Li2Y2F8,0.01908759,147.5991584,,-1.73539697,-76.59364792,520,6.00E-07
mp-3944,225,0.148665699,6.799138632,Zr1Al1Ni2,0,57.53821137,,7.05666034,-26.23937535,520,0.0001757
mp-3951,227,0.672876256,3.802800979,Ti4Cu2S8,0,251.1156372,,5.6031411,-88.96825535,520,0.051075
mp-3953,167,-22.83798302,2.607924029,Ca2C2O6,0,127.4563239,,1.08494234,-74.88606335,520,0
mp-3970,164,7.122231701,2.847791167,K2Ti1F6,0,139.9748251,,-2.80679721,-50.67393866,520,0
mp-3988,65,7.452553638,5.230248178,Ba1Cu3O4,0.013973823,124.4432726,,2.80849803,-42.8697966,520,0.3260887
mp-4001,194,53.02022898,5.731772155,Ba2Ta2S6,0,240.1503054,,5.07514106,-67.21046544,520,2.80E-06
mp-4002,162,5.081425274,3.459404288,Li2Zr1F6,0,105.1678634,,-2.60549617,-54.18974253,520,4.90E-06
mp-4009,63,9.243652905,4.818885149,Ba2Pd2S4,0,212.182595,,2.99961368,-40.48713457,520,2.60E-05
mp-4026,166,4.083478369,3.115616604,K1Cr1S2,0,82.73038981,,3.59467385,-22.72135394,520,2.9999923
mp-4043,215,5.851239459,5.344950218,Nb1Cu3Se4,0,186.2133645,,2.53032213,-40.49199469,520,2.60E-05
mp-4077,215,19.74950739,2.023363411,Cd2C4N4,0.281995546,269.9155963,,-4.59883803,-68.46798492,520,0.0001679
mp-4079,221,1.950596563,3.142635047,Sc3Al1C1,0,91.86598856,,4.47170972,-34.94103296,520,0.000277
mp-4081,215,5.054248956,6.124710654,Ta1Cu3Se4,0,186.375745,,2.6661762,-42.24535442,520,4.72E-05
mp-4083,129,3.663575434,5.355637466,Mg2Cu2As2,0.005352558,100.9367265,,6.19921944,-22.83869798,520,1.20E-06
mp-4093,2,12.18064592,4.150499624,Cu3P2O8,0,152.2633917,,2.94097215,-81.40663224,520,2.7933801
mp-4107,191,-0.994036976,7.798576064,Li1Co6Ge6,0,169.5720285,,5.10622003,-75.7402383,520,0.0076656
mp-4120,194,2.021493597,4.886840305,Ca2Cu2As2,0,121.3389105,,5.36468907,-26.40287636,520,5.25E-06
mp-4124,166,0,2.237002253,Ca3C3N6,0,178.3806843,,1.50120792,-94.3955591,520,5.33E-07