material_id,spacegroup.number,delta_volume,density,full_formula,e_above_hull,structure.lattice.volume,band_gap.optimize_structure_gap,efermi,final_energy,encut,total_magnetization
mp-22152,129,-2.411691137,4.793908028,Na2Fe2As2,0,106.5178774,,4.09857573,-30.5695873,520,0.00631085
mp-22154,225,5.99968003,9.450570676,In2Au1,0,74.95740148,,6.2958518,-9.45561371,520,0.0034472
mp-22156,194,14.57803787,11.27081098,Hf4In2C2,0,142.5599694,,6.43082364,-69.46314255,520,1.36E-05
mp-22163,167,18.38852767,3.629388451,Na2Sn4P6O24,0.000712499,498.999522,,1.71495733,-244.4398553,520,0.00024755
mp-22167,189,2.390325422,6.86748006,Zr6Ga2Co1,0,180.3139532,,4.19909165,-68.14926895,520,0.0058074
mp-22168,227,9.316786329,4.351687597,Mn2In4S8,0,315.0626204,,4.47635012,-70.36818666,520,5.0000172
mp-22179,129,1.305999553,4.422838957,Y2Ti2Si2,0,123.7909537,,5.22804067,-43.60678831,520,0.0027473
mp-22204,62,-3.398206405,7.743705851,Co8P4,0,127.6674956,,8.42169171,-84.77228022,520,0.011659425
mp-22205,186,3.112511791,6.641890893,In2N2,0,64.41492253,,6.06856008,-21.76775112,520,0
mp-22209,140,-3.005210926,7.206964624,Cr6As2N2,0.041410964,112.861266,,7.95653527,-86.5437267,520,0.04604035
mp-22214,164,10.55680447,4.126871742,Rb2Rh1F6,0,156.0526759,,-0.9949179,-40.44579188,520,1.0010477
mp-22215,123,-783.3422147,5.831731643,Ba2Y1Cu3O6,0,185.1376232,,3.30598084,-75.53358836,520,0.0541099
mp-22221,225,4.63962083,8.209805998,Mn1Cu2Sn1,0.100716356,60.8285489,,8.20948155,-21.01713727,520,3.9156634
mp-22227,62,3.309082311,6.19904421,Zr4Mn4Si4,0,186.7028795,,6.451273,-100.8545482,520,0.0002508
mp-22239,62,3.889567933,9.408423081,Ge4Rh4,0,123.9315679,,5.5623061,-52.29274838,520,4.55E-06
mp-22240,62,2.0526594,7.514022372,Mn4As4,0,114.7917851,,6.7643348,-57.41981379,520,0.07322025
mp-22253,156,10.4492672,4.162861704,Zn1In2S4,0.055999893,168.8536705,,3.93605594,-27.23949426,520,1.04E-05
mp-22257,227,10.07079994,6.096809062,Zn4Pd2O8,0.277580886,164.0902541,,2.02673009,-64.25571799,520,5.87E-05
mp-22258,62,0.807223492,10.04908666,Hf4Si4Mo4,0,199.9540118,,7.70145429,-113.4326265,520,2.50E-05
mp-22260,191,-2.805907494,8.074743341,Y1Mn6Sn6,0.006026392,232.5433395,,8.22457468,-87.23502147,520,12.9625447
mp-22262,62,-0.02007208,8.420896551,Co4Mo4P4,0,146.5906276,,9.6369605,-100.862152,520,2.26E-05
mp-22267,191,0.626177153,7.476705417,Y1Mn6Ge6,0,189.7522374,,5.51862894,-93.27277543,520,11.6941911
mp-22268,62,4.758501048,7.963822914,Zr4P4Ru4,0,186.2145048,,7.91609941,-106.4021709,520,1.45E-06
mp-22270,62,-1.022539046,6.483185388,Co4P4,0,92.1115181,,9.25796941,-54.72121301,520,0.0004777
mp-22275,62,8.446457578,10.03158793,Y4Sn4Pt4,0,266.6372769,,6.8441168,-79.04857681,520,8.83E-06
mp-22276,216,0.911256326,8.004767412,Mn2In1Co1,0.220981124,58.83671009,,6.53948029,-27.34722512,520,0.0043512
mp-22284,62,12.14711203,8.745658316,Sr4In4Pt4,0,301.9101714,,5.30092376,-51.24712933,520,7.75E-06
mp-22286,162,12.81807746,8.364904831,Ag5Pb2O6,0,208.3861048,,3.5264612,-57.62123757,520,0.0018317
mp-22287,62,5.403179312,12.40313944,Nb4Ge4Ir4,0,191.590222,,6.96972505,-100.5859237,520,1.02E-05
mp-22289,216,-1.647606184,8.506951276,Mn2Co1Ge1,0.030450421,47.13039383,,6.62939867,-30.63943077,520,3.0269534
mp-22295,136,19.80325344,5.877894046,Ca2Cu8P4,0,201.2624986,,7.15279773,-64.70214775,520,0.0001783
mp-22297,216,2.876391018,7.071010759,Cu2Se1,0.152953972,48.3887526,,5.53219592,-11.56690492,520,0.0006461
mp-22300,225,-0.228919187,8.703472272,Fe1Co2Ge1,0,47.00148261,,7.46680728,-27.93426284,520,5.5798862
mp-22303,12,21.24171773,3.152005915,Rb6In2S6,0,492.4884032,,0.54116524,-50.78183411,520,7.40E-06
mp-22309,205,-1.891494598,7.222027907,Co4Se8,0.018039469,199.4415978,,6.3014678,-59.63438895,520,0.0281685
mp-22312,124,1.658341515,7.735945135,Nb8Fe2Si2,0.068714928,195.5723685,,,-112.1004099,520,0.0003422
mp-22320,221,0.547509691,10.19499091,Ga1Ru1,0,27.81841069,,6.43733826,-12.93888167,520,5.35E-05
mp-22323,167,6.718869947,6.941641659,In4O6,0.029491442,132.8280688,,5.13157422,-56.24671106,520,0.0001719
mp-22332,187,19.39583601,6.985057265,Ta1In1S2,0,85.55708799,,5.67519399,-26.33924189,520,4.10E-06
mp-22345,221,15.52585876,5.035446604,Ti1Cd1O3,2.11118831,68.68323476,,2.49731375,-24.93649773,520,1.1245844
mp-22351,221,7.858833238,10.08831213,Nb1Ru3C1,0.174242436,67.17783324,,,-47.28756043,520,1.00E-07
mp-22356,227,21.90874153,5.489326149,In4Hg2S8,0,337.8876682,,3.38035768,-50.96920859,520,7.30E-06
mp-22375,167,11.27241295,4.712893473,In4S6,0.02988047,229.6063338,,4.58174217,-40.92847818,520,0.00026265
mp-22377,216,7.371783934,7.141208478,Zr1Co1Sb1,0.611576938,63.22867051,,6.23223372,-19.3814494,520,8.99E-05
mp-22389,194,-2.178760211,7.724188464,Mn6Sn2,0.173465718,121.9035235,,7.00698845,-61.58656471,520,0.625367
mp-22396,124,1.473111492,7.810328371,Nb8Si2Ni2,0.048872807,194.9209814,,6.1424241,-107.5365481,520,3.65E-05
mp-22418,217,10.04729326,9.14079347,Sr3Sn4Ir4,0,273.686851,,6.09237788,-62.09575075,520,9.04E-05
mp-22424,164,-3.212408115,2.633770082,Na4S2O8,1.644681279,179.1094204,,2.32069237,-55.54259916,520,0.0013043
mp-22426,62,1.799044747,4.873667368,Sc4Si4Ni4,0,179.5369127,,7.1201813,-80.82031283,520,3.86E-05
mp-22434,62,-1.501409439,10.75533318,Hf4Fe4P4,0,163.8463633,,7.92729436,-107.8337822,520,0.0019703
mp-22440,62,4.405333228,12.62227313,Lu4Si4Ir4,0,208.0007078,,6.95812645,-88.55680451,520,2.08E-06
mp-22442,225,5.762971657,6.549210575,Ba2Na1Os1O6,0,148.0390956,,3.28095026,-65.829121,520,0.723287
mp-22444,124,3.749836892,14.16267313,Ta8Fe2P2,0.053444774,190.0841751,,6.69911557,-127.5353001,520,6.09E-05
mp-22449,163,32.06045288,4.705245623,In2Cu2P4Se12,0.01839349,504.0092433,,3.69462613,-81.13897019,520,7.00E-06
mp-22450,15,4.981971651,6.684437968,Li4Pb2O6,0,133.6890788,,2.80536434,-62.07467929,520,8.10E-06
mp-22451,62,2.569948994,9.200250869,Mo4P4Ru4,0,164.5937454,,9.62748147,-108.4379672,520,0.001840125
mp-22457,164,11.8359319,2.586922535,K3Na1S2O8,0.000330314,213.3730553,,0.09820792,-78.63197188,520,9.87E-05
mp-22460,227,3.762330013,4.924510534,Li2In2,0,82.11397725,,5.62593178,-10.34405197,520,0.00012775
mp-22461,221,-2.417253906,8.536924816,Fe3Sn1,0.092293376,55.67824571,,7.23389171,-29.02025887,520,0.3404324
mp-22465,216,2.316259634,8.243117666,Mn2Co1Sn1,0.177207216,57.91946893,,7.60664568,-28.9393255,520,7.5066065
mp-22469,194,0.11791628,9.246661967,In2Ni6,0.028333937,104.4804751,,8.62295811,-40.70641264,520,0.00072515
mp-22473,166,4.546397331,4.926089419,Na1In1Se2,0,99.68708733,,3.00503797,-14.23984549,520,2.86E-05
mp-22478,191,-0.028802237,7.396871964,Fe3Ge3,0,86.53158778,,5.19439805,-39.98184726,520,1.325558633
mp-22489,62,1.552383297,9.807823306,Hf4Si4Cu4,0,182.9344931,,7.45756448,-85.19166273,520,4.08E-06
mp-22493,225,4.44930081,11.43945906,Y1In1Au2,0,86.7552177,,5.89654831,-18.58597404,520,7.66E-05
mp-22498,58,2.912888619,6.898917802,Cr2Sb4,0.08886058,142.2588397,,7.09424796,-35.25128934,520,2.93085145
mp-22502,221,-0.273264777,10.33054098,Mn3Ir1N1,0.090910673,59.64090472,,6.56973316,-45.35600213,520,8.7815499
mp-22503,225,-5.339814272,8.703697098,Zr1Co2Sn1,0,62.53955518,,7.5369516,-28.2935828,520,1.9998497
mp-22506,11,53.32877404,4.442507859,Cs12In2As6,0,849.9967612,,2.43847188,-51.35495517,520,5.45E-05
mp-22514,194,5.537483848,7.850712305,Mn4Sn2,0.164328865,96.69851899,,7.43404867,-43.66981874,520,0.0003028
mp-22522,62,3.048933863,6.436060481,Zr4Si4Cu4,0,188.7109031,,6.95226216,-80.30182205,520,3.07E-05
mp-22529,62,14.0105623,8.139456048,Sr4In4Au4,0,325.9317948,,4.79760565,-38.64672609,520,2.57E-05
mp-22535,221,0.942870554,10.0360494,Hf1Pb1O3,0.040650935,71.75693927,,4.0480305,-41.24624961,520,1.00E-06
mp-22538,148,4.87862556,4.136498394,Li8Pb1O6,0.000949347,144.0048597,,1.12884673,-74.16551131,520,0.0001817
mp-22546,62,3.166972254,9.891077366,Co4As4Rh4,0.021678209,158.9916643,,7.36350748,-80.21552353,520,0.053295925
mp-22555,205,18.1679183,5.767211195,Rh4S8,0,192.3764949,,7.80160969,-66.88538076,520,4.25E-07
mp-22566,166,5.530981046,6.386764512,Tl1In1S2,0.013270833,99.66495362,,5.1538063,-15.43271186,520,7.67E-05
mp-22569,62,15.0774587,4.500259501,In4P4O16,0.003124445,309.6385226,,2.79302642,-160.0720084,520,1.20E-06
mp-22580,225,0.514224973,8.059958788,Zr1Ga1Ni2,0.018891714,57.34323874,,6.16833883,-25.25172036,520,0.0010756
mp-22583,5,19.53118629,2.507045992,K1In1P2S7,0,291.6446686,,2.0245656,-49.14408334,520,2.93E-05
mp-22585,62,7.709948243,10.72598305,Ge4Rh8,0,172.4331482,,6.52006016,-82.90008905,520,4.78E-06
mp-22587,227,22.80687919,5.63323416,Cd2In4Se8,0.036128239,387.8578508,,,-48.31118518,520,9.70E-06
mp-22596,166,-31.61629746,8.47461827,Ni3Pb2S2,0.006045858,128.2660479,,7.26127014,-35.26721673,520,2.39E-05
mp-22604,148,6.510757796,3.809600713,In1As1F6,0.250408712,132.3906605,,-0.63405815,-35.32887583,520,7.00E-07
mp-22605,227,10.83612187,5.492169384,Cr4Cd2Se8,0,321.843902,,2.89314884,-76.09963794,520,5.99850265
mp-22610,225,-6.240690179,12.06178281,Mn2Sn1W1,0.175308172,56.77847417,,9.02230579,-34.61046669,520,9.00E-06
mp-22617,62,4.312134312,7.159711323,Y4Ni4Sn4,0,247.0585119,,6.68870088,-73.23253417,520,9.53E-06
mp-22619,205,-1.589816578,4.942386268,Ni4P8,0,162.1313699,,8.64273514,-70.84999736,520,0.001295325
mp-22621,129,4.725932225,6.231575161,La2Ti2Ag2O8,0.089930438,191.1339696,,4.03986296,-106.7342956,520,9.69E-05
mp-22625,227,5.279418113,6.416375614,Cr4Cu2Te8,0,350.8968039,,5.66940373,-74.85219081,520,5.3648893
mp-22628,59,52.57383736,3.471116631,Cs2N2O6,0.006010941,186.4853781,,-0.16260879,-58.07292917,520,0.00021
mp-22631,58,-0.215551196,7.919344862,Co4N2,0,55.30265902,,6.54386707,-44.68034157,520,0.0054619
mp-22636,62,2.564011469,12.08766224,Ta4Ni4Ge4,0,171.5981955,,6.86544674,-94.17889573,520,2.33E-06
mp-22637,62,2.610475725,9.894290013,Hf4Nb4P4,0,202.9847213,,7.2753535,-114.2066103,520,2.78E-06
mp-22646,62,10.24027036,10.60969567,In4Pd8,0,205.1289377,,6.83327674,-58.63596677,520,1.53E-05
mp-22660,166,3.061887436,6.868134546,In1Ag1O2,0,61.57631051,,3.44952743,-19.6876484,520,1.00E-06
mp-22661,163,58.71599747,3.249349992,In2Ag2P4S12,0,487.5538299,,2.86127684,-88.65837972,520,2.50E-07
mp-22662,194,1.679549686,11.14746887,Ti2Ga2Pt2,0,93.15251557,,6.60653477,-38.88574212,520,3.48E-05
mp-22673,225,-0.745060571,8.353279816,Mn1In1Cu2,0.079605001,59.01008688,,7.37290638,-19.79858504,520,0.1891298
mp-22682,225,3.494077326,10.37288357,In2Pt1,0,67.99113632,,7.18676313,-12.97947793,520,1.60E-05
mp-22689,216,5.89083045,7.610021895,Zr1Sn1Pd1,0.531819273,69.02978397,,5.47316104,-18.49375757,520,3.27E-05
mp-22691,160,14.92327803,4.944222825,In2Se2,0,130.1623917,,2.99526711,-14.53426966,520,1.65E-05
mp-22692,229,16.87665205,10.71643749,Pb1,0.04722705,32.10616301,,6.70056052,-3.66783319,520,9.65E-05
mp-22693,31,-285.9360611,8.17151439,Te8W4,0,356.8704773,,5.87801232,-78.28782029,520,0.0001488
mp-22694,33,42.93319093,5.314086246,Li8P8Pb8O32,0,772.7283617,,2.39186257,-364.6774612,520,6.97E-05
mp-22701,62,-6.416282834,4.848692036,Sc4Fe4Si4,0.002572935,176.5597132,,6.43097314,-89.07847062,520,0.100012575
mp-22704,221,-1.36432955,6.291686497,Y1In1,0,53.76800107,,5.94130476,-10.18650117,520,2.01E-05
mp-22706,140,-3.506488407,7.370982803,Mn6Ge2C2,0.01263796,112.3991491,,6.35160135,-83.48110449,520,7.98E-05
mp-22712,225,4.683955685,10.24002774,Y1Pd2Pb1,0,82.5314613,,6.08206526,-23.33740691,520,0.0004841
mp-22714,131,-0.958884949,9.574251778,Lu2Co2C2,0,85.30058556,,3.99459161,-43.89168592,520,0.333539
mp-22716,164,-2.338052346,5.219770626,Li2Cu4P2,0.040733275,104.9855213,,6.27151949,-33.28361911,520,0.00012975
mp-22721,148,-32.52212832,7.154598224,Mo6Pb1Se8,0.04337382,328.3015495,,5.00351071,-104.3161527,520,0.0002985
mp-22722,62,4.153336505,8.18877375,Nb4Si4Pd4,0,184.4604901,,7.25856325,-91.08118472,520,2.00E-06
mp-22725,225,1.483805627,7.837534891,Ti1In1Cu2,0,61.39507231,,8.16220893,-19.27522451,520,0.0014864
mp-22731,225,-0.034693668,8.613858532,Mn1In1Ni2,0.044103801,55.354044,,8.15391108,-23.81573506,520,4.232215
mp-22732,107,17.1786355,7.135529055,Co5Ge7,0.570281169,186.9034848,,4.39011431,-63.27380187,520,2.8525569
mp-22735,62,2.433049088,3.412531148,Ca8Sn4,0,387.0731049,,4.05089912,-39.87158175,520,5.31E-05
mp-22739,63,-17.49494869,4.718944548,Ba2Fe4S6,0.056779838,242.951786,,4.94895196,-74.20223978,520,0.00475925
mp-22746,221,-0.819337311,6.715869236,Co1Si1,0.207756291,21.51589544,,10.37212014,-13.34911241,520,0.5044447
mp-22747,2,14.60559695,4.899592721,Pb2C4O8,0.062809742,200.1075203,,1.5735588,-100.9043049,520,1.31E-05
mp-22750,166,1.536037516,7.344014624,P2Pb3O8,0.035324989,183.4961455,,4.36408989,-85.93077988,520,3.07E-05
mp-22756,36,8.701923765,4.726494143,K4Pb2O6,0.004887322,234.2603479,,0.95354195,-56.50637697,520,2.70E-06
mp-22766,227,12.86952713,5.36739658,Ca2In4O8,0,206.4841424,,3.55128482,-82.62590865,520,0.00025825
mp-22769,189,-0.632931105,7.190856228,Ti3Co3Ge3,0,124.3109748,,6.03532111,-64.2308357,520,0.201915967
mp-22770,200,62.73043306,2.249483388,K1Cd1N3O6,1.092121612,213.7241362,,1.03478992,-52.43451703,520,3.9999778
mp-22777,12,-1.514958052,1.912069076,Na1N3,1.237203858,56.4579111,,1.39098626,-21.77763418,520,0.1699203
mp-22784,221,-1.363242537,9.311046449,In1Ni3,0.053872227,51.87900419,,8.73656563,-20.25105316,520,0.72175
mp-22787,164,-0.272938307,7.17306587,Fe4Si2,0.00734828,64.71505457,,8.62300179,-46.93702323,520,0.25587715
mp-22790,225,-0.770504818,8.311589515,V1Ga1Co2,0,47.65512714,,6.10034622,-27.53376309,520,1.9999026
mp-22792,216,3.216297792,7.525434224,Mn1Te1Pd1,0.033153522,63.76058847,,6.45386566,-18.1127789,520,4.9077676
mp-22795,140,-25.64420418,12.48698864,Pb4Au2,0,162.6009416,,6.44114127,-21.91247661,520,0.0002657
mp-22801,62,4.248893665,9.744034123,Lu4Si4Rh4,0,208.5605191,,6.16506,-82.32760944,520,5.40E-06
mp-22803,227,1.677308348,4.120349197,Cr4Cu2S8,0,238.4188502,,5.22606089,-88.60006867,520,0.73590575
mp-22817,124,27.49315,7.549771346,Ta2Te8,0.012826489,304.117858,,6.23082125,-51.33913959,520,0.00042605
mp-22848,64,27.92502929,1.634410171,Cl4,0,144.0791097,,-1.88791147,-7.34872742,520,0
mp-22849,148,71.51361819,4.787149024,Bi2I6,0,409.0992732,,0.47465262,-20.77498788,520,0
mp-22850,193,29.27588593,3.23723409,Ru2Cl6,0.001479223,212.8013872,,1.29051667,-33.92270097,520,0.0088907
mp-22856,62,25.49294801,6.478231374,Bi8S12,0,527.1659681,,4.13973066,-87.58281837,520,0.00037645
mp-22860,194,3.276320624,6.630714521,La2I2,0,133.1343044,,8.72022201,-17.23000798,520,0.00061725
mp-22861,194,6.966264506,10.9822713,Ni2Bi2,0.297034857,80.94551349,,7.19310593,-18.25464018,520,0.00207045
mp-22862,225,1.242216062,2.105306534,Na1Cl1,0,46.09613776,,-0.75866373,-6.77629517,520,0.0002356
mp-22863,129,19.47398057,5.702226787,Cu2I2,0.01351937,110.9217337,,4.15148566,-11.80740563,520,0.00016435
mp-22864,205,18.10651442,12.76237588,Bi8Pt4,0.002930995,319.0580918,,6.25160305,-58.20755036,520,9.75E-07
mp-22865,221,5.141698238,3.749127275,Cs1Cl1,0.047798385,74.56822924,,-0.4871974,-6.54430625,520,0
mp-22867,225,6.249637573,3.164378036,Rb1Br1,0,86.78050691,,-1.95966074,-6.14064914,520,0
mp-22868,194,4.12713103,12.35888092,Bi2Rh2,0.301360368,83.80996891,,7.29785237,-21.97374018,520,0.217835
mp-22875,221,3.536500543,7.068919422,Tl1Br1,0.04515781,66.78109228,,1.82128254,-5.67676334,520,8.90E-05
mp-22877,164,4.988628349,2.873113723,V1Cl2,0,70.4227365,,3.2333915,-16.21496636,520,2.9999148
mp-22878,194,4.723624966,8.599129695,Mn2Bi2,0.458803035,101.9281943,,4.73950086,-24.27977625,520,0.0001132
mp-22880,164,2.039648222,4.536917828,Fe1Br2,0,78.93028685,,2.02732848,-13.04169379,520,0.065279
mp-22881,166,9.464773625,3.611055134,Cd1Cl2,0,84.29808571,,-1.25136085,-7.87903218,520,0.0001318
mp-22883,166,26.56523672,5.112643846,Pb1I2,0.000706504,149.7314043,,0.96611007,-8.7656574,520,0.00015
mp-22885,139,7.547537597,3.87091214,Xe1F2,0,72.62172905,,-4.62894877,-5.25598816,520,2.90E-06
mp-22888,58,9.294940438,3.226876715,Ca2Br4,0,205.7212195,,-0.58744642,-22.83643818,520,0.00011175
mp-22891,224,5.922732951,8.864214047,Bi4O6,0.359982159,174.5768111,,4.66832619,-53.92894428,520,9.68E-05
mp-22893,164,17.20163372,5.357292588,Pb1I2,0.001620918,142.8936968,,1.34454183,-8.76291416,520,0.000153
mp-22894,186,-0.202300169,5.329028127,Ag2I2,0.000986432,146.3115505,,1.28093819,-9.83243609,520,7.64E-05
mp-22895,216,-3.570377798,5.75719533,Cu1I1,0.001631548,54.93133766,,4.28011389,-5.92747846,520,1.80E-06
mp-22898,225,3.567666803,2.972226437,K1I1,0,92.74329737,,-0.65317749,-5.6163605,520,2.71E-05
mp-22899,225,0,4.063406218,Li1I1,0.036395705,54.69687654,,1.80827471,-5.8256555,520,0
mp-22901,221,20.94470416,3.357226181,K1I1,0.069749945,82.10768816,,0.67902276,-5.47686061,520,2.43E-05
mp-22902,123,0.156946519,7.440327258,Li1Bi1,0,48.18953546,,4.34974594,-6.54248123,520,1.00E-07
mp-22903,225,6.014543249,3.359967353,Rb1I1,0,104.9571047,,-0.87208106,-5.51725264,520,0
mp-22905,225,0.1937319,2.058244416,Li1Cl1,0.020322697,34.20239673,,0.03923374,-7.37638453,520,0
mp-22906,221,6.924704631,4.16822115,Cs1Br1,0.040376175,84.77918763,,-0.51213175,-6.0233623,520,0
mp-22913,216,0.364795515,5.147663767,Cu1Br1,0,46.27425878,,2.9648494,-6.23638975,520,0.0003434
mp-22914,216,-2.149058944,4.165254785,Cu1Cl1,0.00467319,39.46738265,,3.80686281,-6.69132482,520,0.0002297
mp-22915,221,0,6.804927184,Ag1I1,0.387911035,57.28925138,,3.44848641,-4.14236884,520,4.45E-05
mp-22916,225,1.452834244,3.120798965,Na1Br1,0,54.74851882,,-0.7477756,-6.11482283,520,1.29E-05
mp-22917,129,14.66136068,5.155570583,Cu2Br2,0.002187302,92.40658098,,2.49813308,-12.46403029,520,3.88E-05
mp-22919,225,0,6.642205534,Ag1I1,0.092018295,58.69273121,,3.11591147,-4.73415432,520,5.27E-05
mp-22922,225,1.717503503,5.356179411,Ag1Cl1,0,44.43287456,,1.43259688,-5.5348954,520,1.70E-06
mp-22923,194,2.004203272,14.02375061,Bi2Pt2,0.242599757,95.68976653,,6.41803811,-20.07649111,520,5.20E-06
mp-22924,123,0.65565687,6.627665472,Na1Bi1,0,58.11933687,,3.80200929,-5.81081801,520,6.10E-06
mp-22925,216,-0.267160982,5.324384084,Ag1I1,0,73.21958332,,1.28802899,-4.91819091,520,2.10E-05
mp-22926,225,2.963087734,7.787945633,La1Bi1,0,74.17592467,,6.03837756,-10.92140866,520,0.0002314
mp-22941,194,8.507243631,6.7899725,Ca2Cu2Bi2,0.04763991,152.8995325,,5.26278658,-22.7835886,520,4.73E-05
mp-22942,12,7.178847107,7.581641127,Ba2Bi2O6,0.001189818,172.7224572,,3.73941143,-59.50596374,520,8.50E-07
mp-22947,225,22.85824748,3.073018359,K2Re1Cl6,0,257.8178686,,0.73318384,-37.22227134,520,3.0000147
mp-22951,129,8.144374974,5.208380709,Ba2I2F2,0,180.5990338,,1.52935238,-27.91091939,520,0.00025755
mp-22955,173,6.817369611,4.300785623,Li2I2O6,0.009089484,140.4201649,,1.91570371,-46.15516826,520,0
mp-22958,160,7.39670464,3.009050273,K1Br1O3,0,92.15892883,,-0.51405003,-20.7446228,520,0
mp-22962,194,16.70584705,4.114540835,Cs2Ti2Br6,0,339.3967279,,3.04564246,-41.34794527,520,1.58241855
mp-22965,156,13.75394712,6.151015654,Bi1Te1I1,0.102335373,125.1231934,,2.92667352,-9.66863278,520,0
mp-22968,63,6.991249286,2.392958429,Na2Cl2O8,0,169.9294152,,-0.53361682,-52.45857696,520,0
mp-22969,129,12.73539187,6.909090597,Pb2I2F2,0.021317397,169.7303278,,3.07962523,-23.29853569,520,0.00109555
mp-22971,62,43.66680566,4.312449329,Sb4S4Br4,0,359.996002,,2.45413936,-44.90903018,520,3.44E-05
mp-22973,129,-2.688618321,5.9776097,Na2Mn2Bi2,0.220554592,159.4022744,,3.32252725,-28.61680699,520,0.0142815
mp-22979,221,3.500614721,9.184240624,Ga1Bi1O3,0.22624995,59.06865722,,5.30402366,-28.38972435,520,3.67E-05
mp-22981,160,3.856399168,6.533713479,Tl1I1O3,0,96.3952831,,2.57278226,-21.50212627,520,0
mp-22984,15,4.025232718,6.804398408,Na2Bi2O4,0,128.837482,,3.54219381,-41.22147462,520,0.002057
mp-22987,129,13.48427646,7.379320335,Bi2I2O2,0,158.3662292,,3.85647413,-26.59977105,520,2.74E-05
mp-22991,194,27.26794346,4.523940895,Cs2V2I6,0,414.4503844,,3.54754196,-38.20842917,520,3.00001045
mp-22995,146,6.425343054,6.576092318,Ag3S1I1,0.054318345,121.85551,,2.60157681,-14.60917216,520,8.80E-06
mp-22996,62,51.74394616,5.108966225,Sb4Se4I4,0,425.943879,,2.93052107,-40.41076433,520,0
mp-22998,59,14.5857534,3.686663604,Cr2S2Br2,0,147.7056108,,2.08251966,-35.36646593,520,3.00020615