material_id,spacegroup.number,delta_volume,density,full_formula,e_above_hull,structure.lattice.volume,band_gap.optimize_structure_gap,efermi,final_energy,encut,total_magnetization
mp-551685,224,8.157838788,8.722243457,Pb4O2,0.35056977,163.8787108,,4.5950454,-27.14905876,520,2.20E-05
mp-551690,160,-7.864048719,3.41913101,Rb4C1O4,0.289084083,202.9478314,,,-43.48550414,520,0
mp-551702,225,7.133058498,7.349225767,Ba2Cd1Re1O6,0,151.2195083,,4.23696048,-67.43227346,520,1.0237384
mp-551736,215,13.06543712,2.434559094,K4C1O4,0.282880481,158.5140261,,0.91430267,-44.59932787,520,5.01E-05
mp-551740,121,4.325575731,1.869841869,Li4C1O4,0.146134381,92.15643221,,-0.12676119,-52.25143524,520,1.00E-07
mp-551741,12,3.874985759,4.114195227,Zn2P2O7,0.033338445,123.0053628,,2.03466839,-69.54938396,520,9.39E-05
mp-551816,123,6.219607822,7.656379602,Y1Bi2I1O4,0,151.3342155,,4.26748869,-50.93806589,520,0.0010956
mp-551835,72,24.63802296,4.792475404,Ba4I4O2,0,377.300203,,,-45.54395427,520,6.95E-06
mp-551848,121,10.28019915,2.418275704,Li4C1O4,0.185354941,71.25653834,,,-51.8984502,520,0
mp-551886,215,12.6114009,2.62143254,Na4C1O4,0.307396546,106.3984607,,1.89346256,-45.56793494,520,2.93E-05
mp-551905,5,14.01480384,4.389482859,Os1O4,0.000915318,96.17416639,,-3.16006346,-35.88492596,520,0
mp-551918,161,1.954356633,8.296028359,Al2Bi2O6,0.052586946,113.6753337,,6.51605159,-65.83976018,520,0.0005059
mp-552131,63,17.14708876,3.350723517,Cs2Cl2O4,0.2789362,198.5845965,,1.29988284,-30.79995939,520,5.81E-05
mp-552169,67,40.3951422,3.535791857,Ag2Cl2O4,0.329842309,164.6735533,,0.50533243,-27.08448011,520,1.48E-05
mp-552176,148,7.979101681,6.07177692,Ba2Pr1Nb1O6,0.00080365,165.3118679,,,-77.83503386,520,0
mp-552185,161,8.790551173,4.141339405,Ag2N2O6,0,136.2269,,0.13742169,-54.66859313,520,4.85E-06
mp-552234,63,12.61366354,6.127056569,Sr2Bi2Br2O4,0,221.4229635,,2.11630433,-53.77519517,520,0.0003746
mp-552265,139,-0.269334182,9.52776533,Bi2Se1O2,0.843860488,92.18233389,,,-21.86221581,520,3.86E-05
mp-552454,140,1.964412196,7.857424086,Sr2Ta2N2O4,0.045993289,132.9599555,,4.22708671,-87.12791119,520,4.30E-06
mp-552488,129,0.619019551,6.758638481,La2Cu2Se2O2,0,146.1425587,,6.91296191,-51.1593607,520,2.71E-05
mp-552537,166,4.095738486,4.240271118,Sr2Cu1Br1O2,0,137.3337758,,1.67629599,-31.5636819,520,3.60E-06
mp-552547,63,12.28575114,6.296863859,Sr2Bi2I2O4,0,240.2407433,,2.76305373,-52.45747367,520,0.00021935
mp-552552,160,36.62422958,2.106956591,Na4C1O4,0.233786962,132.3788009,,1.05377884,-46.2304212,520,1.40E-06
mp-552588,167,8.579958607,4.405934192,Li2Nb2O6,0.033471172,111.4421354,,1.08021116,-78.24702065,520,6.25E-06
mp-552623,146,19.03179731,2.60153592,Na4C1O4,0.308452256,107.2121992,,,-45.55843355,520,0
mp-552663,5,6.705418534,3.642528438,Li1Sc1As2O7,0,143.0244785,,0.67464403,-73.470848,520,4.00E-07
mp-552674,187,8.458810931,9.447241735,Zr1Ta1N1O1,0.902592886,53.11373911,,6.61115167,-38.16569136,520,1.02E-05
mp-552729,160,1.089437038,3.819972036,K1I1O3,0.005242839,93.02606456,,1.52757558,-22.22437731,520,0
mp-552787,59,2.917963083,3.290565436,Fe2Cl2O2,0,108.2923437,,,-32.17060627,520,4.99999905
mp-552857,123,5.6625583,8.372895713,Tb1Bi2I1O4,0,152.2701772,,4.22422945,-49.1851845,520,0.0001766
mp-552941,146,30.81535165,2.425707969,Na4C1O4,0.156097688,114.9834979,,,-46.92962467,520,0
mp-552966,81,20.12780199,3.186626142,Rb4C1O4,0.255161912,217.7554545,,0.75486634,-43.79080368,520,9.80E-05
mp-553243,123,6.717215327,7.529211131,Y1Bi2Br1O4,0,143.5244764,,3.51688744,-51.61215909,520,0.0001283
mp-553248,123,9.239244505,5.264223559,Cs1La1Nb2O7,0.033214214,179.6799427,,2.38471495,-91.01374123,520,1.41E-05
mp-553281,12,-39.48574197,6.005729433,Ba2La1Nb1O6,0,166.5762831,,2.72552906,-78.31870091,520,0.0006999
mp-553303,164,0.743303522,4.519127121,Cs1Cu3O2,0,130.6428816,,1.97706054,-27.53181527,520,5.00E-07
mp-553342,155,-35.83269323,3.206889849,Cs1Be2B1O3F2,0,128.2784953,,-0.90713433,-59.23962509,520,9.90E-06
mp-553347,189,-73.84598818,4.684566456,La2O3,0.235714032,115.4896193,,,-40.84572558,520,0
mp-553374,8,21.30599942,4.496958441,Cs4Sb2O5,0,315.7670664,,1.64191944,-52.99738556,520,1.10E-06
mp-553432,152,18.67548315,2.377210708,Ti3O6,0.051005997,167.3645653,,-1.74686974,-80.30123442,520,7.30E-05
mp-553875,164,2.250892296,5.411710265,Zr2S1N2,0.012767755,74.41724255,,5.2709992,-46.06507831,520,5.91E-05
mp-553881,7,17.73960947,3.062423779,Si4O8,0.360806986,130.318118,,3.15967822,-90.65424037,520,0
mp-553896,225,3.601389357,2.785179133,K3Mo1F6,0,195.093526,,-0.38222489,-49.01852509,520,3.0000096
mp-553942,194,-3.527290658,6.301414361,Cu4S2,0.234466324,83.88161669,,6.79161155,-24.09107226,520,3.55E-05
mp-553946,31,2.04277356,6.156696311,Co2As2S2,0.000553768,89.50134397,,6.74892419,-34.42948722,520,1.90E-05
mp-553952,10,0.261279709,4.687972888,Li1Co2O4,0.061331012,66.87710538,,1.62448919,-39.8073157,520,6.998263
mp-553955,9,22.3855138,2.416969414,V4O6,0.580780938,205.9468213,,0.83962329,-74.51615837,520,3.9999489
mp-553961,13,5.68554098,4.627891446,Sc2Nb2O8,0,144.8591589,,1.93528565,-108.5488043,520,0.00023535
mp-553991,12,8.591072,5.011362391,Ti1Ga4O8,0.002640519,150.6849922,,1.72745679,-87.2427592,520,0.0028764
mp-554002,1,-0.782047723,2.386912488,Al2H6O6,0.022764079,108.5318,,1.13356385,-81.92795991,520,0
mp-554015,166,15.05996015,2.771885169,Cs1K1Cl2O8,9.95E-05,222.1961283,,-1.19749414,-52.88247597,520,0.0007097
mp-554023,167,3.661435228,2.186912765,Be4B2O6F2,0,145.5318432,,-0.97083069,-101.2778936,520,3.00E-06
mp-554051,160,2.777312438,1.068858833,H6C1N1F1,0.074879009,79.33025234,,-3.16735849,-45.38143286,520,0
mp-554072,15,4.647842143,2.285802958,K4C2O6,0.002325086,200.8008849,,0.09862315,-73.81223096,520,0
mp-554074,36,40.0280821,2.711602015,Nb4S8,0.002309302,384.6656526,,0.22732836,-85.60264044,520,0.117612375
mp-554089,33,15.25337466,2.202918263,Si4O8,0.003315629,181.1639179,,-0.3519862,-94.94413665,520,0
mp-554095,148,1.555983135,4.456931358,Ni1Rh1F6,0,102.677557,,-0.45323477,-34.98995036,520,3.0002059
mp-554109,63,-1.90606371,4.534283084,Cu2Se2O8,0.007191059,151.2509402,,2.28777152,-61.0655035,520,1.00022975
mp-554121,12,2.940955438,4.760696556,Na1Hf2V1F11,0,223.1960103,,1.07586381,-101.9450388,520,2.9992216
mp-554134,39,4.196451413,1.282575916,Sn2S2,0.050226945,390.4139639,,-1.99935909,-17.84904221,520,2.15E-05
mp-554151,82,14.53446124,2.060964256,Si4O8,0.005705494,193.6420306,,-0.91147699,-94.91545827,520,5.00E-05
mp-554155,148,9.443425671,3.313599637,K1Sb1P2O8,0,175.7963723,,0.95053165,-79.63304861,520,0.0023741
mp-554168,225,3.133493178,3.495106542,K1Rb2Mo1F6,0,199.5267209,,,-49.05684375,520,3
mp-554171,2,23.22076056,2.985878715,Mg12P8O32,0.029246678,584.7330776,,,-356.6827906,520,0
mp-554198,15,2.695046502,2.540412757,Ca2Mg2Si4O4,0.475999189,199.4320642,,,-65.77103987,520,2.20E-06
mp-554201,221,2.799392738,3.428996852,Mo1F3,0.016955075,74.06098551,,-0.74339499,-22.98567399,520,2.999997
mp-554212,166,-54.35339702,8.775205888,Tl2Ni3S2,0.004149639,122.806385,,6.88481663,-32.26040224,520,6.70E-06
mp-554218,148,21.50393465,3.402086955,Ti4P6Pb1O24,0,472.717401,,0.93227611,-274.1395526,520,0.0004643
mp-554236,176,25.90902809,3.068874977,Ca10P6Cl2O24,0.001274757,563.5534052,,2.14561082,-296.2779329,520,4.47E-05
mp-554252,225,1.676071251,2.955365007,K2Na1Cr1F6,0,150.1171634,,-1.25985503,-51.01461565,520,2.9999997
mp-554304,166,14.27830274,8.842787939,Bi2Pd3S2,0.063022603,150.4813072,,,-33.68780029,520,3.65E-05
mp-554310,166,32.45500082,7.125515165,Tl1Bi1S2,0,111.275734,,4.58653782,-16.17917021,520,0
mp-554311,148,3.016492639,3.130267717,Rb1Cr1F6,0,133.3910552,,-3.30367304,-38.33812103,520,1.0001243
mp-554328,2,9.946723673,2.443237895,Na2S2O8,0.160261985,161.8271453,,0.12277024,-67.56955362,520,8.05E-05
mp-554337,164,8.373035963,5.064964165,Rb2Ir1F6,0,156.4304475,,0.00210533,-41.76966984,520,1.0102141
mp-554340,14,0.881053365,3.592451718,Cr2F4,0,83.19484639,,,-37.94367121,520,3.99999975
mp-554352,139,4.503500859,5.294293762,Ba2Cu1F6,0.013581378,141.8281415,,1.22767472,-46.98570148,520,1.002992
mp-554355,123,2.504484982,3.050516118,Ca1F2,0.240474663,42.49978006,,-0.43146425,-16.85577195,520,3.10E-06
mp-554396,164,25.31311477,2.993170122,Mg4Si2O8,0.223041387,156.1063192,,2.51528916,-93.31532777,520,1.27E-05
mp-554410,12,5.980720406,6.285416456,Ba2La1Ru1O6,0.000161071,161.3207499,,4.02967169,-71.3922052,520,3.0004357
mp-554465,221,0.288779154,4.379628745,Rb1Fe1F3,0.250689589,75.18860868,,3.33040463,-23.97654224,520,4.0001008
mp-554517,14,0.950716584,3.121958003,Na2Mn2F8,0,163.7386144,,-1.38085034,-64.06164041,520,3.99982885
mp-554560,218,17.8436201,2.553252025,Li8Be6P6Br2O24,0,545.8083365,,0.38657005,-305.5249387,520,0.00033115
mp-554573,40,6.443874341,2.108999995,Si4O8,0.001406715,189.2315336,,-0.60773668,-94.96704362,520,0
mp-554601,221,-0.663722564,4.816803536,Rb1Cu1F3,0.013125488,71.01929744,,0.59491196,-21.04004976,520,0.0051553
mp-554620,87,0.061385865,6.750258203,Sr2Fe1Re1O6,0,126.2670851,,,-72.88061955,520,3.0000007
mp-554635,166,-3.007732637,2.154582231,Co2O4,0.018056029,140.1627893,,-4.61093205,-34.12318072,520,0.4998943
mp-554663,164,10.59013283,3.088198819,Mg4Si2O8,0.062286208,151.3026841,,2.94251164,-95.56590028,520,5.15E-06
mp-554669,164,9.782494198,7.571464218,Ba3Ta2Cd1O9,0,225.9568337,,2.03865453,-116.3014785,520,0.0004577
mp-554688,139,23.36668191,5.299568224,Ba6Hf5S16,0.011638955,698.5648505,,3.28376702,-177.3089654,520,0.0008872
mp-554702,12,0.847908095,3.558104466,Na1Zr2Ni1F11,0,220.7983543,,-2.49455277,-91.0519623,520,1.9998316
mp-554765,1,92.8933502,3.783467084,Ba1Sb2F12,0,267.2105695,,-2.55572639,-72.31921861,520,3.80E-06
mp-554769,216,10.64769513,5.390713315,Mo4S4Br4,0.016060039,256.1746404,,4.5734209,-75.59304403,520,0.000351125
mp-554799,14,4.250480081,2.923214533,V2F8,0,144.2115917,,-2.3952084,-56.37968651,520,0.99998545
mp-554867,47,9.830936364,7.806127814,Ta4O10,0.317724214,188.0010671,,2.21406919,-132.2756597,520,1.20E-05
mp-554868,160,7.513064852,4.680826285,Al1Mo4S8,0.024312991,236.7132996,,6.05703957,-91.01909073,520,1.0005818
mp-554883,2,-0.450796905,2.383153385,Al2H6O6,0.030311015,108.7029942,,1.11696297,-81.8223028,520,0
mp-554917,2,23.74982162,3.63897417,Li2Sn4P6O24,0,483.0382972,,,-245.5884455,520,0
mp-554941,225,17.62211819,3.965026222,Rb2K1Bi1F6,0.006370475,223.2205023,,-1.03078663,-44.6745586,520,2.08E-05
mp-554948,63,13.21555939,3.680282596,Na2I2O4F4,0,198.4280629,,0.0228595,-50.3529596,520,0
mp-554955,148,1.14893074,2.970003556,Mg1Cr1F6,0,106.3926324,,-2.26048804,-42.80268053,520,1.9999895
mp-554959,164,11.98079703,3.475333741,K2Al2Sb2O7,0,233.014792,,1.30529761,-80.75189738,520,0.0001574
mp-554962,139,0.452456332,3.535935168,Cs1K2Co1O2,0,141.8406454,,1.65367321,-24.49965966,520,1.9998964
mp-554973,221,-0.45953712,7.468855151,Tl1Cu1F3,0.000905713,72.23996481,,2.20236698,-20.28106003,520,0.044842
mp-555014,123,0.944133558,3.300939249,Rb2Mn1F5,0,161.4116215,,-0.98549271,-40.44720556,520,3.9999431
mp-555018,58,8.925636847,5.078018634,Rb2Na4Au2O4,0,235.7137358,,0.98865346,-46.40323084,520,0.00045805
mp-555036,221,1.267161448,3.273019868,K1Cr1F3,0.080761714,75.1320151,,2.91241183,-27.32280393,520,4.0000677
mp-555037,166,-27.63581782,6.204669813,Ta1S2,0.01008736,65.58953173,,4.12323537,-23.23413041,520,0.000138
mp-555047,14,-0.896433613,3.49685391,Li2Co2F8,0,134.73656,,-1.8725392,-56.60932713,520,3.99998735
mp-555052,2,2.492861869,3.690992658,Mn1Sb2F12,0,236.8393544,,,-74.00150871,520,5.0000001
mp-555064,14,13.44826328,3.768238004,Cd2C4O8,0.071440137,176.6458697,,0.07563353,-94.73719204,520,0
mp-555066,148,9.963823627,5.992300185,Mo6Pb1S8,0.033501617,288.0192586,,6.10257815,-111.7774908,520,2.57E-05
mp-555108,2,11.70388828,1.579092409,P2H18C2N8O8,0.069621745,361.9118059,,-0.68677168,-226.0776439,520,0
mp-555123,221,0.612613085,3.235297524,K1Mn1F3,0.002186706,77.51799977,,0.77677839,-28.04759831,520,4.9999821
mp-555138,63,2.021960354,4.392441365,Co2Se2O8,0.005015796,152.6474774,,1.58520229,-66.40117791,520,2.99986685
mp-555147,9,14.24940175,2.544711708,Si4O8,0.090409544,156.8308513,,1.0605243,-93.89900967,520,0
mp-555156,15,4.480608554,3.509871248,Mn2Cr2F10,0.005564273,191.0647142,,-0.48750918,-86.55879953,520,7.999991
mp-555166,23,9.794240331,4.789230996,Ba1Ag2Sn1S4,0,208.0456939,,3.61676058,-34.22314566,520,0.0001892
mp-555170,166,-2.265169985,2.37139837,B12S1,0.412266034,113.2961203,,5.47884945,-79.64249466,520,0.0009089
mp-555194,164,36.9891212,5.754469106,Si1Hg3S2F6,0,233.1536641,,-1.08007972,-47.28135197,520,2.25E-05
mp-555212,129,14.98398944,5.867766227,Ba4In2Br2O6,0,292.8269546,,2.26210259,-76.81929507,520,0.00024785
mp-555223,123,0.508179792,3.779584377,Cs2Mn1F5,0,182.6534438,,-0.54496346,-40.33846509,520,3.9999503
mp-555231,15,40.19787811,5.217239902,Ba6Bi4P8O32,0,770.1257426,,1.93830896,-351.2077116,520,0.0006657
mp-555234,2,20.05735404,3.974888062,Rb2Sb2Br2F6,0,287.5232335,,-0.10081971,-51.25475766,520,0.0001831
mp-555285,139,2.616563695,5.078188943,Sr2Mn1Cu2S2O2,0.091256808,148.2588559,,,-50.52604364,520,4.9333773
mp-555293,42,7.548889661,1.20812627,Nb1S2,0.004554462,215.8425375,,-3.40000091,-21.39392463,520,0.1518162
mp-555345,160,-6.612810815,4.988178724,Cr1Cu1S2,0.216808616,59.81191793,,7.0152252,-23.33242884,520,1.1209022
mp-555359,140,1.111498655,3.259120431,K2Mn2F6,0.000183234,153.9027464,,0.63636971,-56.11523134,520,5.0000003
mp-555391,221,2.738344879,3.002923423,Na1V1F3,0.090071129,72.39895892,,2.56883958,-27.54312709,520,2.9999485
mp-555396,33,14.82107046,2.756949861,Mg8P4Cl4O16,0.015948589,431.3368942,,1.69959878,-200.3215217,520,0.0004873
mp-555403,225,4.557256435,3.501655909,K3W1F6,0,196.8588053,,0.07385344,-49.07437923,520,3.0000534
mp-555477,148,0.963344632,5.613015626,Ag2H3I1O6,0.061548281,130.659797,,2.19337864,-52.49866815,520,1.20E-06
mp-555506,225,2.201137156,2.968911148,Zr1Cr1F6,0.049297186,143.8601855,,0.96319832,-52.92754015,520,3.9999892
mp-555520,225,1.375294453,6.540424338,Sr2Fe1W1O6,0.081370654,129.7171081,,5.49125211,-69.41955428,520,4.0001991
mp-555538,131,88.33513682,1.643848483,Al2P2S8,0.548699651,376.2120168,,1.15767555,-51.84912633,520,2.10E-06
mp-555552,164,1.560770571,2.585986461,K2Na2S2O8,0.034141048,203.1065239,,0.24995315,-78.13580187,520,2.10E-05
mp-555565,157,11.70767777,8.378068091,Ag5Pb2O6,5.17E-05,208.0586975,,3.54262472,-57.62056593,520,0.0036602
mp-555569,148,34.54911584,3.774201299,Cr4S6,0.015764624,176.1531167,,5.53413515,-70.14968094,520,0.00722165
mp-555580,148,26.47051866,3.174275806,Sr1Zr4P6O24,0,534.8125096,,0.07537256,-284.6429972,520,5.90E-05
mp-555585,62,32.41774006,5.178705988,Ba4F8,0.04054833,224.8685489,,-1.55223634,-68.75284812,520,4.38E-06
mp-555599,63,4.826034885,4.642928021,Cu6S6,0,205.1711301,,5.07183891,-51.74087861,520,0.000113483
mp-555608,167,25.80719102,2.730036552,Na6Sc4P6O24,0.011629454,539.8750316,,0.85238409,-290.5101389,520,3.82E-05
mp-555616,139,22.38606602,6.281720806,Ca1Nb2Bi2O9,0.627027395,208.2628863,,,-96.90156889,520,1.1316889
mp-555623,167,12.01392941,3.797520389,Ba2Mo4P6O24,0.013736931,537.0725811,,2.11037149,-265.008737,520,5.00103585
mp-555656,2,12.98318038,2.562417964,Cu1C2S2O6F6,0.176090933,234.3843879,,-0.26065009,-93.623905,520,0.9986498
mp-555661,161,36.01454235,3.156063469,Ca18In2P14O56,0,1199.94108,,1.9110316,-646.421237,520,6.20E-06
mp-555731,189,3.359167594,4.172082152,Sr3Ge3O9,0.112684141,248.6678298,,0.40526073,-96.73937507,520,7.15E-05
mp-555741,2,16.27956524,4.131685877,Rb1Au1S2O8,0,190.7271546,,-0.19725103,-66.7302392,520,0.0003893
mp-555746,12,9.506050801,5.657657097,In1Ag3P2O8,0.009762727,184.4270754,,2.76965052,-82.15237023,520,1.88E-05
mp-555760,154,84.41914956,1.763729667,S9,0.041229528,271.7007418,,0.72278042,-36.77984107,520,1.89E-07
mp-555763,160,3.184692336,3.997493807,Zn3S3,0.002517217,121.470644,,1.90001534,-21.03845291,520,2.47E-06
mp-555821,2,8.895027423,3.63094537,Na4Cu1As2O8,0.018572562,198.1808285,,1.92250887,-80.55811186,520,0.9997996
mp-555836,40,19.69672877,4.104966206,Sn4P2Cl2O8,0,297.600464,,3.23811983,-97.6386348,520,0.00047735
mp-555850,166,0.202334111,6.671465841,Lu2S2F2,0.010320108,112.5186931,,2.16489675,-38.8500236,520,2.05E-05
mp-555857,20,7.238030854,4.207324787,Ba2V2S6,0.003474395,224.5430392,,4.6683254,-60.45808478,520,0.06790975
mp-555874,9,4.049619805,3.001681377,Li2As2S4,0,161.5270786,,2.92611993,-34.51815693,520,0
mp-555891,4,20.44772105,1.991234698,Si4O8,0.007681022,200.4230359,,-0.7659056,-94.89175194,520,6.47E-05
mp-555901,26,9.069057208,3.187441284,K2Cu2C2O6F2,0,189.2675359,,1.00266812,-83.80381517,520,2.32E-05
mp-555911,148,9.082181482,4.874600178,Tl1As1F6,0,133.9765741,,-1.90746605,-35.46982055,520,0.0008393
mp-555934,136,3.000747469,3.707784065,V2F4,0,79.66242228,,,-38.49690635,520,2.9999984
mp-555941,148,6.091435998,1.44809285,Al6P6O24,0.010930205,839.0658895,,-2.9929479,-269.1086758,520,6.67E-07
mp-555970,225,2.737203445,6.202361575,Na1Tl2Mo1F6,0,171.7968149,,,-47.99661327,520,2.9999998
mp-556012,62,30.17111773,1.573201522,Na4C4S4N4,0.059523472,342.2918177,,-0.51289628,-96.90719143,520,0.0003966
mp-556034,60,78.67095561,1.519134895,C4O8,0.023517888,192.4239726,,-4.11672475,-91.88497655,520,0
mp-556045,140,-22.88613465,2.727521917,K2Cu2F6,0.142508017,194.3798408,,-0.84962267,-41.31825622,520,0.00049815
mp-556084,62,1.284259187,2.198745165,K4Cl4O12,0.020673943,370.2079392,,-1.03920264,-85.92436017,520,0.000417875
mp-556111,62,-32.22982709,4.823386289,Y4Se4F4,0.103313242,257.3257616,,2.1770769,-80.65884003,520,0.00010325
mp-556120,155,15.50761742,4.179881828,Rb1Tl1S2O8,0,191.4744233,,0.37687696,-67.72859303,520,4.44E-05
mp-556145,61,51.48560582,3.166524449,Na8As8O16,0.001884841,545.0036119,,0.64016883,-175.5348965,520,0.000101263
mp-556163,122,6.287924885,4.487559684,Zn4Si2O8,0.025699902,164.9609163,,1.42153843,-83.86083325,520,3.68E-05
mp-556185,15,5.937145054,3.65198219,Rb2Na2Ti2O6,0,185.8091948,,0.80643314,-79.2580013,520,0.00015025
mp-556194,129,1.124168958,5.111565918,Sr2Sb2Se4F2,0.015014972,250.985154,,3.34988155,-46.46597103,520,5.60E-06
mp-556197,167,-0.716280039,3.413068502,Fe2F6,0,109.798894,,-2.01765975,-42.16762229,520,5.0001208
mp-556225,11,-101.6682725,6.50384362,Ag4S2,0.005376127,126.5356066,,2.29137644,-19.89288919,520,0.0006588
mp-556228,82,11.96977429,2.963278195,Na5Ca4P4O16F1,1.43E-05,377.7720198,,1.82301764,-196.9046174,520,6.94E-05
mp-556242,221,-23.60281596,4.653595128,Y3F9,0.200315335,156.185314,,0.16540322,-83.17121207,520,6.21E-05
mp-556264,225,1.887019249,3.422391458,K1Rb2Cr1F6,0.000370801,182.4445256,,-1.36523715,-50.38097773,520,2.9999977
mp-556275,164,13.45215794,3.923571483,Rb2Al2Sb2O7,0,245.643772,,1.22419615,-80.38364284,520,0.0058035
mp-556288,167,-12.09665835,7.620984721,Li4Re2O6,0.207999035,108.1116144,,5.08305327,-81.32323712,520,0.0018365
mp-556321,2,2.850606137,6.615928847,Li2Co1W2O8,0.000613447,142.6860108,,2.09392049,-88.25309009,520,3.000019
mp-556376,3,-0.340126603,2.703090389,Si4O8,0.423739552,147.6418639,,2.19228533,-89.89904957,520,1.83E-06
mp-556411,71,17.89753474,5.869755247,Ca1Bi2C2O8,0.18345311,172.5831429,,,-87.62834173,520,0
mp-556417,225,-0.541036311,3.594560688,Rb2Ni1F6,0,158.7380239,,-3.1909122,-35.27161408,520,0.0013996
mp-556424,221,2.080106206,4.111199971,Rb1V1F3,0,78.117275,,2.19097543,-27.85849154,520,3.0000093
mp-556440,148,25.46278693,3.058946309,Ca1Zr4P6O24,0,529.1681838,,0.06646656,-284.6761425,520,0.0003611
mp-556456,148,-0.08616262,3.35167566,Zr1Co1F6,0.076302494,130.8681001,,0.06290861,-48.98588145,520,3.0001729
mp-556487,225,2.800636193,3.130323522,K2Na1Mo1F6,0,165.0377572,,-0.04160615,-49.61210079,520,3.0000205
mp-556506,15,3.420848051,4.142719963,Mn2Cd2F10,0.004355775,210.3099304,,-1.31273492,-68.19781674,520,3.99997165
mp-556520,136,0.596108285,4.432623699,Co2F4,0,72.62337722,,,-30.49243874,520,2.99999955
mp-556549,56,32.99807318,8.031755383,Bi8O12,0.02442031,385.34197,,3.228578,-114.5691255,520,7.23E-06
mp-556553,5,18.72717443,2.498919252,Si4O8,0.094896389,159.7047616,,1.10695894,-93.84516753,520,0
mp-556561,221,3.848182413,6.505036262,La1Fe1O3,0.101953722,61.96639453,,7.49500213,-37.54384301,520,5.0009359