material_id,spacegroup.number,delta_volume,density,full_formula,e_above_hull,structure.lattice.volume,band_gap.optimize_structure_gap,efermi,final_energy,encut,total_magnetization
mp-27703,59,10.6322277,5.104885187,In2Br2O2,0,137.0887291,,1.6606098,-26.23146595,520,5.00E-08
mp-27718,221,-8.393998832,5.153219177,Cs1Hg1Br3,0.040894644,184.7065532,,-0.29196615,-11.05886109,520,0.0008573
mp-27719,227,-2.3780539,4.444363278,Al4Cu2O8,0.063746958,135.6319926,,5.56372879,-94.39914059,520,1.01383875
mp-27725,138,58.52165194,6.757824871,Au4I4,0,318.3275769,,1.21935364,-19.77819322,520,0.004353575
mp-27726,41,-24.57289607,1.400395143,S2O4,0,151.9291773,,-2.02497551,-34.41706627,520,0
mp-27734,148,119.496592,3.942648525,Cr6Br18,0,737.1583117,,0.26326866,-106.5530801,520,3.000041067
mp-27741,14,57.56005614,6.725408959,Te4Au4I4,0,445.8823487,,2.32422871,-33.40147159,520,0.0005653
mp-27747,14,54.14909179,5.456715494,Pd4I8,0,438.4866456,,2.13895445,-35.87937466,520,6.37E-05
mp-27757,129,-1.490333678,1.981767245,Be8B2,0,78.52830137,,4.95066627,-43.42415773,520,8.00E-07
mp-27785,164,9.766114956,4.602036457,Ti1Br2,0.059376276,74.93474864,,2.5928428,-14.2882385,520,0.1989
mp-27801,140,18.60183265,6.596253915,Tl2Ag2I4,0.03191184,284.9997807,,2.49505333,-20.07872918,520,0.00087675
mp-27814,166,122.8297076,1.523698839,C1S14,0,502.3150227,,-0.37996219,-66.05649123,520,0.0022849
mp-27816,155,4.051698151,6.402022932,Ag3B1O3,0.066704334,99.18943607,,1.17242969,-36.026842,520,0.000148
mp-27819,162,6.563400647,8.823461435,Ag6O2,0.01538519,127.8241435,,2.16993807,-27.31072897,520,3.10E-06
mp-27821,8,9.263244435,3.75636207,Ag3P11,0,293.6678101,,4.67401898,-68.3719356,520,0.0001098
mp-27827,225,24.83759538,2.663452136,Rb2Ti1Cl6,0,269.0331067,,-0.75812133,-37.16324268,520,1.91E-05
mp-27834,225,26.15803537,5.250924971,Tl2Pt1Cl6,0,258.2295589,,0.8598183,-28.86398406,520,0.0010784
mp-27837,166,1.658467747,2.072712052,Na1H1F2,0,49.66648089,,-3.89365296,-17.50992955,520,1.00E-06
mp-27838,194,4.608071948,3.629908822,Na6Bi2,0,254.3018922,,-0.90823322,-18.69109758,520,0.00010185
mp-27839,225,17.24239552,2.232694652,K2Ti1Cl6,0,251.9646259,,-0.54662243,-37.17669942,520,3.00E-06
mp-27848,59,11.14057583,4.637499785,Ti2I2N2,0,135.1907432,,3.68794564,-42.40853336,520,2.15E-06
mp-27849,59,9.94026694,3.939589276,Ti2Br2N2,0,119.5187566,,1.8882765,-44.00960114,520,0.0002983
mp-27852,199,44.16378853,6.84413062,Hg6Te4Cl4,0,450.2469073,,0.80689821,-27.40946798,520,0.00487225
mp-27853,199,53.91294125,6.919127691,Hg6Te4Br4,0,488.0382729,,0.63233439,-25.71816665,520,5.55E-05
mp-27863,59,-1.649513058,2.642278072,Al2Cl2O2,0,98.58358094,,1.65115395,-35.18828611,520,0.00026485
mp-27864,14,10.55279471,1.80768524,B4F8,0.121618095,179.3393367,,-3.28586367,-70.01532635,520,0.00010565
mp-27872,227,-34.46771596,3.922096319,Mg2Ti4O8,0.016327088,155.8350098,,6.59135237,-113.9568754,520,0.9508166
mp-27882,225,27.94393552,3.096268284,Cs2Ge1Cl6,0,295.5937272,,-0.8060577,-30.0960747,520,0.0004768
mp-27888,121,5.864478397,5.758365113,Zr3Ge1O8,0.00386414,136.775909,,2.95849332,-104.9767407,520,1.00E-07
mp-27891,58,5.945660031,8.737740763,Bi4S2O4,0,183.2099826,,5.4415055,-53.25230141,520,0.00120775
mp-27910,166,7.472586924,6.893318297,Bi2Te2S1,0.139991897,169.88262,,4.64393336,-19.62489055,520,0.0009666
mp-27916,166,6.30721123,7.781401657,Ag3Bi3Se6,0.001134039,303.9446478,,4.07741606,-44.30820254,520,2.67E-07
mp-27919,166,-0.184151069,4.541437592,Ti8C5,0,161.9754415,,6.23862705,-118.7187083,520,3.22E-05
mp-27922,164,91.86750488,4.112267224,Ge3I6,0,395.4615641,,0.88913818,-26.07817779,520,5.50E-06
mp-27929,166,22.44375903,3.699418104,La2Cl2,0.123292047,156.5268041,,,-19.50867916,520,0.91243065
mp-27934,186,32.13590142,4.412563567,Cd2Br4,0,204.8832929,,-1.38481553,-13.6875679,520,4.58E-05
mp-27945,160,1.061847577,8.635896846,Bi1O1,0.485781042,43.25986609,,5.8022342,-9.91598054,520,0.0002171
mp-27962,121,23.49523363,3.925782949,C1I4,0.533417196,219.7940015,,0.93915839,-12.63462456,520,1.01E-05
mp-27987,36,19.37160999,2.87690671,Br2F10,0,201.8985611,,-3.5469084,-33.62062309,520,0
mp-27989,59,18.55352267,2.165992112,C2Br2N2,0.366623175,162.4074427,,-2.92606759,-35.41418205,520,0.0018635
mp-28006,166,-0.636120684,6.521876473,Ca1Cu4As2,0.003542381,113.0739022,,6.05278222,-30.13258888,520,0.0001349
mp-28011,15,37.83296316,5.948520745,Tl4Sn4S6,0,414.474012,,4.09293843,-55.97293891,520,2.75E-06
mp-28013,164,13.2129917,4.463106156,Mn1I2,0,114.8721102,,2.1795455,-13.5662759,520,5.0000815
mp-28019,11,15.7039009,5.631629706,Nb2Cr2Se10,0,318.2727149,,,-82.53200319,520,2.7239611
mp-28049,62,50.02616543,3.955592317,Ba4Br4Cl4,0.048601064,424.3022164,,-0.45695455,-49.91257667,520,1.37E-05
mp-28056,115,3.126365747,8.643314579,P2Rh3,0.079055889,71.21134803,,7.67287147,-36.24704447,520,0.0008681
mp-28077,62,-217.2966704,6.094794066,Pb4Br8,0.014618552,399.9683044,,,-38.88662658,520,1.06E-05
mp-28084,225,56.5928893,4.078801777,Rb2Pd1Br6,0,308.0958917,,-0.55170986,-25.7872972,520,0.0002776
mp-28099,41,65.40223152,2.434063383,S4Br4,0,305.5448713,,-1.0692541,-23.39645439,520,0
mp-28109,14,31.57457943,4.536995882,Sb4As4O12,0,358.2109138,,2.04847611,-120.2051399,520,0.00115195
mp-28110,225,30.6920713,4.881466915,Rb2Pt1I6,0,383.5258599,,1.49368692,-24.17219046,520,0.0001455
mp-28111,108,6.061861784,2.107959929,K6N2O6,0,282.4857472,,1.13368743,-66.93550323,520,3.50E-07
mp-28118,12,169.4394149,3.522778333,Al2Sb2I12,0.002750409,858.0557444,,-0.05641922,-42.21424901,520,0
mp-28128,19,204.5860757,1.612640648,S8Cl16,0.061853225,848.235424,,-0.48170706,-64.83848709,520,0.000248675
mp-28145,225,14.60184233,3.084246168,Rb2Pd1Cl6,0,263.8525919,,-0.78278375,-28.69445905,520,0.0001169
mp-28153,115,42.01571511,4.322362321,Ca1Au2F12,0,254.3200776,,-3.40917741,-52.71165714,520,0.0007514
mp-28163,12,7.800932506,3.32490559,K2Pd1F4,0,130.1551039,,-1.07648233,-30.11402046,520,9.20E-06
mp-28166,221,5.643435521,2.4032814,K3Br1O1,0,147.3086341,,0.98853179,-16.57877931,520,4.02E-05
mp-28171,221,8.371898151,2.772864361,K3I1O1,0,155.8208983,,1.7132301,-16.02935511,520,6.50E-06
mp-28174,2,32.3764141,2.376391048,Pd1S2Cl6,0,267.8142881,,0.02980243,-27.10935786,520,0.0002131
mp-28214,2,26.62502322,3.824505583,Ti2Br6,0,249.7243872,,,-35.39431129,520,1
mp-28222,164,18.28460774,3.689068785,Rb3Sb2Br9,0.010945453,548.7281057,,0.31148855,-42.08108623,520,0
mp-28223,14,34.55399186,5.69870022,La4Se8,0.133563141,345.9668079,,4.95698821,-67.19120605,520,1.32E-05
mp-28233,166,8.241850844,2.673234724,Mn1Cl2,0,78.17081973,,0.85840457,-16.10892648,520,4.9999371
mp-28235,74,6.562527504,7.71678958,Tl2Cu4O4,0,156.4285061,,4.61918542,-46.40812823,520,0.0005996
mp-28246,229,2.39014228,7.016015929,Ag1Te3,0.011150295,116.1305376,,5.69771189,-12.31015366,520,0.0021089
mp-28247,128,42.89270891,4.739769735,K4Pt2I12,0,725.0023363,,1.5712539,-48.46015869,520,0.0013904
mp-28248,186,30.81888719,4.982262811,Cd2I4,0.000736437,244.1149858,,0.89279823,-11.45410904,520,3.79E-05
mp-28250,65,30.41823457,3.769206153,Li2Mn1Br4,0.014074029,171.1270732,,1.07202208,-28.13732308,520,4.9998207
mp-28266,15,3.816648488,5.431193337,P4Pd2,0,102.9537449,,6.21155184,-34.58119362,520,4.00E-07
mp-28270,62,7.136990743,2.494129921,K4Cu4S4,0,358.7464307,,0.9260955,-46.48864811,520,0.000268775
mp-28295,31,14.88625584,4.660253004,Cs2I2O6,0,219.3560748,,1.34653767,-44.11372068,520,0.0100672
mp-28302,166,7.214681726,2.123014573,K4Cd1P2,0,258.701074,,0.44865884,-18.60495049,520,7.94E-05
mp-28306,164,11.94220523,3.825775523,Mn1Br2,0,93.20834148,,0.42470909,-14.86851942,520,5.0000494
mp-28319,14,61.43772105,6.667264483,Pt4I8,0,447.2024493,,2.47524243,-38.37172479,520,5.50E-05
mp-28323,141,14.16741726,4.720441405,Pd4Cl4O2,0.035584868,210.8866083,,1.16782214,-42.27268952,520,7.41E-05
mp-28339,26,6.246358181,7.316650551,Ca4P4Pt4,0,241.6017109,,5.82260014,-67.56998533,520,2.50E-08
mp-28357,162,17.92963347,7.237399477,Nb1Hg3F6,0,185.5394047,,-0.07255356,-43.13788801,520,0.0013586
mp-28375,2,25.52186771,4.669536552,Ta2Ag1F12,0,248.1257968,,-2.59445025,-91.32183831,520,1.000868
mp-28377,160,12.66076076,4.295309693,Cs1Ge1I3,0,226.643897,,,-14.282119,520,0
mp-28383,62,14.42557921,2.02694091,K4Na4S4,0,308.5336065,,0.57893677,-39.12298811,520,0.0001187
mp-28395,166,-0.276242581,2.588885394,B12P2,0,122.945316,,5.17745435,-95.03668705,520,0
mp-28423,109,21.32415796,4.643885748,Ga4Te2Se4,0,303.9147266,,1.64240606,-37.50660257,520,2.33E-05
mp-28439,65,5.096230029,2.993169855,K1Sc2F7,0.008227453,145.3507486,,-2.07947881,-64.52093279,520,0.0002814
mp-28453,139,32.65845091,5.272797489,Cs2Au2I6,0,447.5631206,,1.16980686,-24.67009187,520,0.0001614
mp-28460,33,37.78458267,3.64143594,Br8O4,0.047225802,320.6812434,,-0.22009964,-30.78957875,520,0.000104075
mp-28483,148,56.84969315,4.176017674,W1Br6,0,263.7382913,,-1.24955234,-26.10837474,520,0.000179
mp-28487,164,12.08538268,6.121943187,Ge5Te8As2,0.016813879,416.0454347,,5.31140197,-58.30233706,520,0.0026202
mp-28490,11,40.82856518,6.785806138,Tl6B2Se6,0,421.3088004,,2.79715049,-52.93149365,520,0.000466
mp-28505,125,24.3628184,4.558579821,Ba2Al4Te8,0,511.2047229,,3.03505347,-56.54863122,520,1.50E-07
mp-28545,62,9.018839751,3.358712666,Rb4Li4O4,0.002533535,214.3869587,,0.39529201,-47.7386425,520,0.0001472
mp-28553,194,-88.85980854,3.967260767,Ca4I2N2,0,185.0600139,,3.736612,-37.13195317,520,2.78E-05
mp-28554,166,1.812365403,3.709854307,Ca2As1I1,0,126.2158018,,3.16169511,-15.82751897,520,4.59E-05
mp-28563,61,105.1782054,4.067285439,Cs8As8Se16,0.002596934,1194.580056,,1.23247663,-120.4277204,520,0
mp-28567,88,3.536993888,5.963330041,Li2Bi2F8,0,162.5723453,,0.38878341,-58.36072919,520,7.00E-07
mp-28571,11,16.05506818,4.777454422,La4Br10,0,470.8509468,,4.32288729,-63.40468873,520,1.0000894
mp-28572,194,25.72575713,4.351826013,La2Br4,0.003959044,227.9619531,,3.76419227,-27.31727549,520,0.9999873
mp-28577,140,52.82980734,2.817201191,Rb2Br2F8,0,284.5353695,,-2.9238823,-39.36904166,520,0.0009198
mp-28591,166,3.698712552,3.132232944,Na4Hg1P2,0,187.9347597,,1.10704781,-18.86369517,520,5.40E-06
mp-28593,221,-2.44383516,3.015289307,Li3Br1O1,0.038768636,64.28197246,,1.02067464,-20.75354594,520,0
mp-28595,62,10.94873614,2.700291117,K4Na4Se4,0,346.9489998,,0.28835431,-36.87539066,520,0.00023535
mp-28603,62,4.688849818,3.014998771,Na4Li4Se4,0,239.8904772,,0.98158782,-40.91146753,520,0.00062805
mp-28613,189,7.318072214,14.18258125,Li3B3Pt9,0,211.8045366,,5.49593339,-88.07113629,520,3.63E-06
mp-28614,191,5.502820311,13.51092228,Na2B2Pt6,0,152.1674494,,5.38087025,-56.75554659,520,1.13E-05
mp-28645,131,0.454193489,4.185007234,Ca2Ni2N2,0,89.49682878,,4.74772244,-36.31348771,520,0.0001322
mp-28650,123,13.75330097,3.639105238,Cs1Br2F1,0,142.2354317,,-1.02226458,-11.54476011,520,0.0005533
mp-28688,166,11.84648661,6.293362171,Sr3Hg3O6,0.000136333,253.4666839,,0.14192572,-56.01035517,520,5.38E-05
mp-28691,2,46.53464552,6.344729775,Ta2Te8I2,0,428.305072,,,-55.28316558,520,0
mp-28705,191,2.24356118,7.675385659,Ca1B2Rh3,0,80.13813072,,6.25329021,-41.11703874,520,0.0002772
mp-28708,220,33.42869863,4.883131248,In12P8O32,0,726.8996699,,3.66237448,-332.057243,520,6.13E-06
mp-28712,12,22.83240267,8.31367812,Si2Hg6O7,0,273.9789369,,0.8804853,-66.20537436,520,1.79E-05
mp-28747,11,25.90518383,5.333595578,Y6Ru2I6,0,466.0702325,,4.63972737,-80.52413993,520,4.57E-05
mp-28748,11,26.44951371,5.926856582,Y6Ir2I6,0,470.4916335,,4.85405427,-81.81756733,520,7.69E-05
mp-28760,62,11.42012045,2.579423921,K4Rb4S4,0.008094587,403.3335572,,0.27627973,-37.10253824,520,0.000219
mp-28766,15,11.18559215,2.261437984,K4Ti2S6,0,326.4021255,,1.37927295,-61.38120242,520,0.00029085
mp-28767,65,2.351458598,6.558224634,Sc5Re2C7,0,172.496817,,6.20509863,-127.9564767,520,0.0033492
mp-28793,58,1.514613812,2.20161335,Mg4C6,0.173393856,127.6804681,,3.92034608,-60.03624277,520,3.66E-05
mp-28795,11,1.213961403,6.378535912,La2Si4Ru2,0,154.192994,,8.61421365,-56.83701372,520,2.02E-05
mp-28796,139,9.755030939,6.802028217,Sr5Au2O8,0,234.3660573,,2.49199927,-84.19863385,520,0.0002276
mp-28797,187,0.980988328,5.558096193,Y1H1Se1,0,50.452801,,3.96329831,-17.65958555,520,1.22E-05
mp-28810,15,9.215500157,1.911614755,Na4C2S6,0.09397203,267.8684158,,1.62060601,-54.18770683,520,1.20E-06
mp-28835,188,14.19704418,4.415889178,Li2Sc2I6,0.049179449,325.3552341,,5.04687256,-36.81410512,520,0.0026495
mp-28860,14,145.963889,3.366906209,P8Se20,0.034676887,901.0611498,,1.29015872,-113.3350435,520,4.64E-05
mp-28861,191,18.15302201,2.893417516,Cs3C24,0,394.2554913,,4.63537254,-225.3355435,520,0.000107167
mp-28868,193,13.38207485,5.794931001,Nb6Bi4S12,0,509.5264618,,4.64383029,-145.5102046,520,0.0003018
mp-28872,160,7.861485589,3.606918252,Rb1Br1O3,0,98.23045331,,,-20.63320316,520,0
mp-28873,160,9.17036209,3.944049053,Cs1Br1O3,0,109.8062631,,,-20.59120694,520,0
mp-28878,15,28.0327775,5.313357188,Rb2Te12,0.018695219,531.9541892,,4.25954185,-43.17911152,520,7.30E-06
mp-28879,12,3.726625161,2.522200609,Ca5P8,0,295.0679434,,3.95903596,-65.07445133,520,0.0002629
mp-28885,14,218.642541,2.765414061,P16Se16,0,1056.185003,,0.65604878,-144.8640068,520,0.000168006
mp-28895,139,4.085540292,5.521099808,Ba1P4Pd2,0,142.5800231,,5.59681218,-38.57836239,520,2.48E-05
mp-28896,43,2.376812823,12.35500359,Cu4B4Ir4,0,143.3124744,,7.47953874,-80.71062538,520,6.25E-07
mp-28897,43,4.887798141,13.5249029,B4Pd4Ir4,0,151.9716596,,6.80998781,-86.18500957,520,2.50E-07
mp-28899,15,26.65130759,7.153428079,Hg4As6Br2,0.000341409,327.7000833,,1.79056499,-34.12668021,520,7.18E-05
mp-28900,15,22.04502589,5.373335567,Cd4As6Br2,0.000281385,327.2604637,,1.80008705,-38.28565743,520,0.0003059
mp-28910,12,-10.04159973,1.898100845,Cr2S4,0.007457737,203.1840648,,-0.36303845,-38.94217124,520,1.0138121
mp-28916,12,-18.42199365,7.181792851,Mn6As4,0.060032031,145.507062,,6.25132478,-75.137992,520,0.00287
mp-28930,70,6.235394707,1.949986531,K2C16,0,230.2355836,,2.33403524,-150.3653621,520,0.000101
mp-28954,55,15.98408977,8.28557543,Tl4Pd2Se4,0,269.7989528,,4.30079998,-37.48820839,520,1.00E-06
mp-28955,194,3.357341767,2.348393568,Mg6B2N6,0.03119063,177.8290581,,3.28754187,-85.17326059,520,0.00010125
mp-28963,216,25.82438979,7.81879732,Ag8S1,0.264597658,190.0803898,,2.28906145,-24.57160489,520,6.28E-05
mp-28965,2,23.14664299,4.985524777,Ag1Bi2F12,0,251.0730006,,-2.32856212,-58.16650413,520,1.0023572
mp-28967,11,15.79115079,4.91714831,Ba2Pd4S8,0,323.1331094,,3.3001906,-69.33395974,520,0.00045795
mp-28989,187,1.993978212,1.708491674,Li10Br1N3,0,185.9638812,,0.29026065,-53.34806197,520,5.59E-05
mp-28994,59,3.268965921,2.224353226,K2Li4As2,0,190.9643628,,0.89603391,-23.88740689,520,5.12E-05
mp-28998,189,10.40514603,13.3061502,Sn5B2Ir6,0,220.6964504,,9.50961804,-90.22835932,520,2.43E-05
mp-29008,225,7.689861959,3.45802281,Li6Mg1Br8,0.019869463,338.6281601,,-0.10893694,-49.19996346,520,1.51E-05
mp-29009,65,4.28345151,3.488522749,Li2Mg1Br4,0.014540987,170.3144548,,-0.07434232,-22.66157478,520,1.70E-06
mp-29011,198,15.43479286,9.539427134,Bi4Te4Pd4,0.044506358,308.4543542,,6.40749235,-52.94627626,520,6.83E-06
mp-29014,14,259.05089,1.742737254,P16S24,0.011563758,1205.468395,,0.81371668,-192.1521464,520,0.000108863
mp-29026,186,1.571206927,10.73323554,Mn2W2N4,0.029830713,82.55061733,,7.34246372,-79.39180337,520,6.02E-05
mp-29056,221,11.90022255,6.237263789,La3In1C1,0,144.7073438,,7.30940933,-28.37308408,520,7.90E-06
mp-29069,164,0.251720321,4.382051881,Na1Cu4S4,0,153.6354704,,4.88758617,-37.60379285,520,0.0011438
mp-29072,14,78.99748807,6.146944213,Nb8Si4Te16,0,782.6493917,,5.64176766,-166.683917,520,5.45E-06
mp-29073,14,106.4541497,6.183430932,Nb8Ge4Te16,0,825.8910227,,4.91382464,-162.9807133,520,0.000106925
mp-29076,194,-0.120131378,11.13071003,Fe2W2N4,0.006636397,79.8733671,,7.45969061,-77.84405088,520,0.00017645
mp-29088,11,6.162530552,4.541408325,Sr6Ge4N4,0,318.9538118,,2.99749129,-71.30932834,520,1.65E-06
mp-29089,135,13.57904576,4.801681584,Sr16Ge8N16,0,763.2855341,,3.51432996,-223.9014571,520,4.38E-07
mp-29092,11,12.85899288,5.190687547,Ba6Ge4N4,0,374.4671516,,2.83257834,-71.52605361,520,4.60E-06
mp-29127,2,56.07238021,4.73711145,Bi2Te4Br8,0.028063753,549.5013302,,0.65076279,-40.22254611,520,0.00047285
mp-29131,194,-2.282722539,6.058562776,V2Se2,0.176035103,71.20715592,,6.26357994,-27.14847973,520,2.24194495
mp-29138,127,17.69758975,5.569337142,K2Au2Se4,0,234.9390024,,1.22865137,-27.42064903,520,1.44E-05
mp-29152,11,2.615721034,6.728850166,Zr4Co2P2,0,134.422978,,5.88121848,-66.69454869,520,3.85E-06
mp-29153,11,2.653295122,6.691111011,Zr4Ni2P2,0,135.0621292,,6.34940107,-64.52299777,520,1.30E-06
mp-29154,11,1.858186709,11.44378904,Hf4Co2P2,0,129.690129,,6.39256553,-72.27673629,520,2.10E-05
mp-29157,1,6.370125002,5.429212108,Si6P4Pt2,0,208.7677094,,7.10626776,-71.22924004,520,5.50E-05
mp-29185,2,18.63026549,5.074401242,Te4O6F4,0,223.304229,,2.52454017,-69.99853384,520,0.00049835
mp-29190,2,44.48301234,5.638733096,Te8Mo2Br2,0,404.1811994,,3.96409464,-53.18446966,520,0.00024185
mp-29194,15,48.78751476,5.726762603,Cs4Au4Se6,0,519.9723924,,1.00292326,-47.07705279,520,0.00034345
mp-29196,183,8.514642068,6.236494496,Au1C1N1,0.250298823,59.37206968,,-0.66217198,-19.70086378,520,0.0001581
mp-29208,164,5.776219344,5.442552718,Ca1Mg2Bi2,0,154.5800575,,3.91495753,-15.64445338,520,1.49E-05
mp-29209,164,7.786766143,5.700026155,Ba1Mg2Bi2,0,175.9282933,,3.18980663,-15.93079904,520,2.00E-07
mp-29225,216,19.93588277,3.78340492,Al4Cu2O7,0.419548804,152.304665,,,-84.01224627,520,0.3236261
mp-29231,148,8.025441764,5.494088432,Mo6S6Br2,0.02731988,280.4307286,,,-102.7603751,520,8.10E-06
mp-29234,14,55.41068525,4.690691882,In4Te4I4,0,522.9713614,,2.41628656,-34.83512527,520,0.000315375
mp-29236,14,49.23444024,4.644533977,In4Te4Br4,0,460.9532557,,2.13563242,-36.9917933,520,5.98E-05
mp-29238,62,4.954360193,8.485686687,Tl4Ag4Se4,0,306.2201057,,3.64369296,-37.69659731,520,0.000979375
mp-29240,193,3.995816723,8.16608401,La2Si4Ru6,0.082732026,202.6489405,,8.56214998,-95.14725328,520,0.0002309
mp-29241,221,1.18681345,3.70880302,Ca3Sn1O1,0,114.1455792,,5.08151049,-23.12406075,520,1.00E-07
mp-29242,221,8.548993071,6.159763139,Ba3Pb1O1,0,171.2309107,,3.64895143,-21.20606077,520,0.0001203
mp-29243,221,7.015332161,5.380650249,Ba3Sn1O1,0,168.7158076,,3.61458193,-21.69599213,520,8.40E-06
mp-29244,15,13.02647009,4.956260224,Cd4P6I2,0.017628364,297.9484226,,3.64695846,-41.85582617,520,0.00044305
mp-29245,15,13.62657398,4.622674268,Cd4P6Br2,0.006840908,285.6826176,,2.89672087,-43.09979576,520,0.0004052
mp-29249,52,79.05188028,4.441143991,Ge8As8Se8,0,677.5694928,,1.39900116,-106.3677288,520,2.24E-06
mp-29257,186,5.057938773,8.195472104,La2Tl2O6,0.157227319,158.5625041,,4.99962765,-63.48748827,520,0.00010525
mp-29299,9,0.155939994,4.557717106,Te2Se2O8,0,197.1475837,,,-63.48223595,520,0
mp-29326,12,5.635459549,7.677114498,La3Re2O10,0,205.2930352,,6.51208356,-128.2819151,520,0.8004624
mp-29337,11,36.10587388,6.199362149,Tl6B2S6,0,385.796783,,3.10972301,-58.25118501,520,0.0018154
mp-29396,15,4.524770264,7.830003269,Cu4Pb2O4,0,155.3614098,,4.86274915,-50.64822853,520,0.0002274
mp-29398,225,41.35816646,4.629361662,Cs2Hf1I6,0,432.4911517,,0.99177341,-32.22134107,520,0.000237
mp-29403,82,27.11743,4.386590501,Ga1Cu1I4,0,242.607028,,1.4830443,-15.69055341,520,0.0001618
mp-29443,2,66.15702276,3.332330893,P2I4,0,283.8210308,,1.00331229,-17.26500723,520,0.00016775
mp-29456,127,20.3773994,3.356799749,Rb4I2N6,0.009952163,336.2435192,,-0.04714162,-64.00846456,520,0.0005641
mp-29463,14,0.26256774,1.928562579,Li4Be4N4,0,103.184733,,1.80795907,-66.41975051,520,0
mp-29469,14,85.54151819,3.914041836,Pd2Se12Cl4,0.007565329,552.4487304,,0.73601651,-63.11949137,520,0.00044555
mp-29481,225,26.12876429,4.402748733,Rb2W1Br6,0,314.6264043,,0.89730832,-34.41592538,520,1.9998432
mp-29484,166,10.21628435,3.052031082,K4Hg1As2,0,275.7524419,,0.36451654,-17.13524513,520,3.38E-05
mp-29496,2,56.94027695,3.71319317,Pd1Se2Br6,0,332.6110714,,-0.76580015,-24.0445852,520,0.0032202
mp-29504,14,4.514234122,2.090979993,Cl4F4,0,172.9690023,,-1.62923837,-17.71218127,520,0.00031635