material_id,spacegroup.number,delta_volume,density,full_formula,e_above_hull,structure.lattice.volume,band_gap.optimize_structure_gap,efermi,final_energy,encut,total_magnetization
mp-7931,189,6.199598588,3.436590108,Sr6P6,0,343.8226245,,3.34653355,-55.16996823,520,5.28E-06
mp-7936,194,4.408572022,4.24244156,Li2Nb2S4,0,128.3651583,,5.93828249,-50.99017587,520,2.65E-05
mp-7937,194,3.225643204,4.103610301,Na2Nb2S4,0,145.6963148,,5.57487482,-49.05011021,520,1.39E-05
mp-7938,194,7.069702975,3.965988299,K2Nb2S4,0,164.2411771,,5.22147677,-48.27106022,520,2.15E-06
mp-7939,194,6.356681335,5.440616577,Na2Nb2Se4,0,167.1437048,,4.67388963,-44.84700477,520,8.05E-06
mp-7940,194,8.799132502,5.13490549,K2Nb2Se4,0.03350475,187.5131882,,4.3572835,-44.27511604,520,0.00041295
mp-7941,148,4.844190455,3.36348159,Li6Te1O6,0,130.9492407,,0.99889412,-67.85589231,520,0
mp-7947,131,4.11434413,13.11196417,Pt2O2,0.144437236,53.46448813,,5.50968606,-22.96133254,520,1.10E-06
mp-7948,198,2.080585834,12.82846732,Si4Re4,0,110.9535702,,9.3880863,-73.88835385,520,5.90E-05
mp-7949,164,11.82244358,3.897700093,Rb2Ge1F6,0.009514161,152.3340226,,-2.88130712,-42.58622138,520,0.0009612
mp-7955,194,-0.012888639,2.977982506,Li6Sb2,0.003361273,159.0100932,,2.32023145,-24.7439786,520,5.00E-07
mp-7956,194,2.017359504,2.647151596,Na6Sb2,0,239.2862292,,1.74239094,-19.63321413,520,0.00012205
mp-7958,166,2.025533587,4.590395779,K1La1O2,0,75.9667538,,2.93133182,-26.60092036,520,6.00E-07
mp-7961,221,4.980690439,4.742722778,Sr3Sn1O1,0,139.1984184,,4.14527944,-21.59046287,520,5.00E-07
mp-7964,194,-2.344085681,4.49685005,Y2Al2O6,0.102088622,121.0351312,,3.60606744,-82.36256909,520,7.00E-07
mp-7972,166,1.400087737,5.277807202,Rb1La1O2,0,80.66149723,,3.08784704,-26.28148218,520,6.32E-05
mp-7979,164,-6.737502973,3.373014702,K2Pd1F6,0,147.004581,,-2.05598813,-37.54234415,520,2.82E-05
mp-7980,164,12.06230519,6.925496783,Ba3Sr1Ta2O9,0.014485448,241.0885038,,1.96739165,-120.3726368,520,8.80E-06
mp-7982,55,6.134127902,3.669479864,Mg4Si2O8,0.173405802,127.3348779,,5.27136911,-94.01022596,520,0
mp-7986,221,11.6909213,5.106609414,Ca2Sn2O6,0.194988586,134.4831884,,4.55654012,-62.43652419,520,1.35E-06
mp-7988,166,16.30557394,4.047969272,Cs2O1,0,115.602906,,1.51445313,-9.61550422,520,0
mp-7991,194,1.161868377,1.824820232,B2N2,0,45.1669255,,0.86797624,-35.15046707,520,0
mp-8000,148,5.254696525,4.358231602,Sr1Sn1B2O6,0,123.428265,,2.12734089,-72.94256148,520,7.00E-07
mp-8001,166,1.039189804,3.295160018,Li1Al1O2,0.015590257,33.21992125,,4.01296527,-26.4444247,520,2.00E-07
mp-8002,166,1.430169773,4.899987698,Li1Ga1O2,0.065219695,36.82434175,,1.8444694,-22.70859506,520,2.70E-06
mp-8003,216,6.27471235,3.330023131,Si1C1N1,2.220898004,26.97878486,,8.81275991,-18.33974966,520,1.77E-05
mp-8018,164,8.274110407,3.476384066,K2Rh1F6,0,140.9546929,,-0.93726928,-40.66934228,520,1.0140822
mp-8020,221,1.812907343,6.282851225,La1Ti1O3,0.068595901,62.04919534,,9.81967871,-43.59468629,520,0.0001577
mp-8022,225,15.21301104,2.520647912,Al2O1,1.764105524,46.08950903,,6.307475,-12.17398354,520,0.0035425
mp-8023,225,-23.14441587,3.182442618,Al1O1,1.305065712,22.42664993,,9.52415583,-11.10806551,520,0.0004879
mp-8041,225,7.816495908,2.799743936,Rb2S1,0,120.400447,,-0.08468049,-9.07759602,520,7.51E-05
mp-8042,88,5.323153205,5.811094795,Zr2Ge2O8,0,130.2243711,,3.01563658,-95.99159175,520,2.25E-06
mp-8044,194,-0.275632157,5.394854986,V4P2C2,0,89.18055328,,8.52560714,-71.10807828,520,0.00031195
mp-8058,141,14.08125843,4.619263704,Y2As2O8,0,163.797702,,1.26426244,-90.25759393,520,7.65E-06
mp-8062,216,0.30720854,3.170448429,Si1C1,0.000718861,21.00059564,,8.002431,-15.05930432,520,0
mp-8074,221,9.13699505,8.546454674,Ta1Sn1O3,0.322914649,67.54806705,,7.67700464,-40.4697124,520,9.30E-05
mp-8079,166,4.746821683,11.76511575,B5W2,0.568116471,59.52405797,,9.87020228,-57.48688929,520,0.000141
mp-8085,224,11.17430909,2.048438265,Mg6P4,0.186760339,218.6489971,,3.28107043,-36.05455015,520,0.0001424
mp-8086,14,6.399729485,3.987947632,Na4Zn4O6,0.003572299,187.2051162,,0.9453209,-59.78343046,520,1.01E-05
mp-8090,12,7.391659995,3.923852954,Cu2P2O7,0.003634914,127.3954233,,3.20228805,-71.00653501,520,0.0001713
mp-8097,216,1.778045153,2.596641467,Si1P1,0.385070509,37.76809832,,7.5367805,-10.37302717,520,0.0005148
mp-8098,194,5.7154575,6.438644513,In2Ga2O6,0.002258892,119.9446309,,4.04626696,-58.42671873,520,4.67E-05
mp-8101,166,4.752976975,11.74500243,W1N2,0.628157713,29.95238559,,7.17556386,-28.54333559,520,7.20E-06
mp-8102,221,5.50749053,13.35455262,W3N4,0.186694822,75.54391438,,7.91456285,-72.53255712,520,2.21E-05
mp-8110,167,2.408629708,3.497216468,Al2B2O6,0.030434987,81.46986154,,4.79533291,-77.58874792,520,0
mp-8111,166,1.160708564,5.955490951,La2O2F2,0.005269358,96.977118,,4.63125587,-46.80600151,520,0
mp-8116,176,22.33860351,4.495115627,K2Mo6S6,0,312.6042626,,4.79853987,-103.2602636,520,1.70E-06
mp-8117,176,22.6892027,4.734564483,Rb2Mo6S6,0,329.3204775,,4.58960422,-103.1220051,520,0.0004161
mp-8125,194,1.473697556,8.395027884,Lu2Si2Cu2,0,105.4665269,,5.78996529,-32.0080182,520,1.20E-06
mp-8126,194,1.034319127,5.355216713,Y2Si2Cu2,0,111.9616008,,5.71847619,-36.06311601,520,3.20E-06
mp-8127,166,7.096579257,2.649226259,K2Mg1C2O6,0,139.4754977,,1.30990846,-72.78760812,520,0
mp-8132,164,-37.5091001,4.137400556,Li1Ti3Se6,0,250.5626008,,2.59511741,-58.14673679,520,0.000872
mp-8145,166,1.716797596,4.4712204,Rb1Sc1O2,0.002536457,60.3210976,,2.12909332,-27.82655837,520,1.59E-05
mp-8150,164,8.837475197,5.984728841,Ba1Cd2Sb2,0,168.0505578,,3.36065918,-14.74423323,520,3.86E-05
mp-8153,63,9.196692144,5.642204855,Na2Hg2P2O8,0,187.5035038,,1.14002542,-77.69717535,520,2.00E-06
mp-8159,123,0.40920828,6.492741556,Tl1Cu4S3,0.001094902,141.8822002,,5.56550902,-32.83926867,520,0.0005477
mp-8175,166,3.733225648,6.951058371,K1Tl1O2,0,65.80954072,,2.54549508,-17.56108397,520,0
mp-8176,166,4.319979109,7.592668973,Rb1Tl1O2,0,70.38951993,,2.65012437,-17.16067278,520,1.52E-05
mp-8177,225,2.649928591,8.773296181,Hg1F2,0,45.15779455,,-1.5571629,-8.32286774,520,4.00E-07
mp-8180,167,4.297054013,2.267302422,Li2N2O6,0,100.9899319,,0.16669918,-59.8628469,520,5.00E-06
mp-8182,204,14.45845515,6.882907581,As12Rh4,0,316.2089969,,5.65735251,-92.26705731,520,1.06E-05
mp-8188,166,1.560334703,3.423675581,K1Sc1O2,0,56.28762205,,1.77414157,-28.35766397,520,1.90E-06
mp-8189,161,3.658948833,7.702759965,Li2Re2O6,0.075045472,103.971221,,4.28135203,-75.31535801,520,6.95E-06
mp-8192,164,11.09871394,5.012072476,Rb2Pt1F6,0,159.0310955,,-1.25998376,-38.64958651,520,0.0001881
mp-8196,160,0.77392796,4.213744787,Ag1N1O3,0.030785983,66.94304678,,0.20907305,-27.18036665,520,1.86E-05
mp-8200,14,6.918372362,4.860241977,Ag4P8,0.014437379,232.075391,,5.16837403,-54.70040487,520,0.0001936
mp-8207,65,5.447928577,10.6086227,Zn1Pt3O6,0,116.8722649,,4.8499398,-56.03071891,520,4.00E-07
mp-8208,65,5.260715247,10.06177204,Mg1Pt3O6,0,116.4406191,,5.22128921,-59.0979022,520,1.30E-06
mp-8211,166,15.41668687,4.989100528,Ga2Ge2Te2,0.005630623,179.7053791,,3.0544032,-23.02998006,520,9.00E-07
mp-8212,65,6.048789094,10.76842072,Cd1Pt3O6,0,122.3858588,,4.54731981,-55.42312742,520,1.90E-06
mp-8217,225,11.28690831,3.894138582,Cs2Ge1F6,0,192.9300831,,-3.13400386,-42.60944752,520,4.58E-05
mp-8219,164,0.313298946,5.968636937,Zr1Cu2P2,0,77.97232903,,7.17886466,-30.86727957,520,2.40E-06
mp-8221,189,4.499544355,8.83545513,Zr3As3Ru3,0,150.6618265,,7.29225768,-75.16342417,520,5.72E-05
mp-8222,216,4.598522252,6.324174775,Ag1O1,0.306385767,32.52392492,,0.52564821,-7.37017883,520,0.0003309
mp-8224,225,10.31839779,2.914908061,Ca1Sn1F6,0,155.3939969,,-3.51447939,-41.92921005,520,1.00E-07
mp-8231,129,4.843116332,5.48317724,Zr2S2O2,0.027564077,84.36489133,,6.07382228,-49.81470723,520,2.77E-05
mp-8234,113,11.22793671,5.982170076,Ba2Te6,0.011695469,288.7551435,,4.46225017,-29.77078715,520,0.0001403
mp-8236,123,4.180964996,6.427580075,Ba1P2Pd2,0,106.4681028,,4.81693856,-27.08426706,520,4.00E-06
mp-8237,123,4.489140262,7.331796762,Ba1As2Pd2,0.01437798,113.244609,,4.1778635,-25.40295082,520,9.30E-06
mp-8248,12,25.56437599,3.857665405,Rb4Te2O6,0,298.3322,,0.14621207,-57.73476112,520,6.05E-06
mp-8249,71,27.12703469,4.023799044,Tl2P2S6,0,273.6494227,,2.42706818,-43.60214525,520,0.00021605
mp-8253,12,19.96648516,4.398163567,Na5Re1O6,0,149.945949,,1.12686919,-69.36164596,520,1.87E-05
mp-8255,148,9.582765894,4.574793031,Ca1Pt1F6,0,126.7338695,,-1.47578256,-38.15821809,520,1.00E-07
mp-8256,148,6.897130581,5.87543062,Zn1Pt1F6,0,105.838087,,-1.09695134,-32.2477265,520,1.41E-05
mp-8263,59,6.414555682,2.453298957,K2Na4B2O6,0,194.7826572,,1.08319026,-78.1451744,520,0
mp-8267,71,21.17534058,1.953133581,K2P2S6,0,282.7179362,,1.24196192,-44.442193,520,9.86E-05
mp-8275,148,6.773014054,6.51294812,Cd2Ge2O6,0.021762601,118.8362897,,1.63042089,-55.0876149,520,9.50E-07
mp-8276,164,1.16554093,4.453665808,Sr1Zn2P2,0,104.5410969,,3.70306449,-18.49179895,520,6.90E-05
mp-8277,164,3.839555568,5.083181653,Sr1Cd2P2,0,122.3030108,,3.16158148,-17.31108187,520,0.0006098
mp-8278,164,2.033867606,3.235439427,Ba1Mg2P2,0,127.2228823,,3.03193971,-20.60436848,520,8.58E-05
mp-8279,164,4.792611138,5.350860623,Ba1Cd2P2,0,131.6103865,,2.93540651,-17.50301192,520,0.0005523
mp-8280,164,3.612989113,4.040214583,Ba1Mg2As2,0,138.0065636,,2.65723672,-19.16775064,520,3.90E-05
mp-8281,164,6.844681823,5.957082816,Ba1Cd2As2,0,142.7180153,,2.64371414,-16.26482609,520,3.00E-07
mp-8282,136,0.458902175,4.881544382,Ti4N2,0,74.6602724,,6.94583346,-56.16347293,520,1.65E-06
mp-8285,148,5.180508043,5.970667487,Zn2Ge2O6,0.034688486,103.4854611,,2.15863506,-56.98611148,520,6.35E-06
mp-8289,225,26.38419825,3.42410002,Sn2F6,0,170.4187135,,-0.91229457,-38.73801285,520,2.15E-06
mp-8290,148,7.841688623,4.876926232,Ba1Sn1F6,0,125.9902131,,-1.12451952,-41.80426905,520,4.30E-05
mp-8291,166,6.908112205,4.121344686,Ba1Ti1F6,0,120.5449789,,-1.84768331,-50.32053844,520,8.00E-07
mp-8308,166,-2.664155371,5.66955338,Ca3Ni7B2,0,161.8815697,,6.03106131,-63.86849882,520,1.30E-06
mp-8314,11,17.90425469,4.35375229,Cs4Na2As2O8,0,326.2682395,,0.72117007,-82.131694,520,9.46E-05
mp-8338,221,12.96311165,5.462134461,Ta1F3,0.442998205,72.3368845,,2.67951254,-27.29012257,520,2.0011225
mp-8348,166,12.28958241,4.99001066,Tl1Sb1F6,0,146.4644614,,-1.45255593,-36.2009103,520,0.0007444
mp-8352,227,1.820713474,1.921904664,Si2O4,0.012191455,103.8265089,,-0.967217,-47.41881337,520,0
mp-8354,194,2.742420612,5.79226109,La2F6,0.019348059,112.3225357,,2.51122728,-54.34870911,520,0
mp-8355,173,9.269796445,2.50374199,K2Al2Si2O8,0.002591927,209.7945677,,0.80375813,-99.26051644,520,0
mp-8360,55,18.9949024,4.240912479,Rb4Te4,0.025609452,333.7087496,,2.21532166,-22.99123756,520,3.40E-05
mp-8365,62,-1.414524274,6.499320459,Mn4B4,0,67.19401313,,7.45213814,-67.34452429,520,1.88486905
mp-8370,221,9.36740935,7.836251357,Ni3Ge1C1,0.322493054,55.25012135,,7.53630646,-30.73074071,520,0.0004045
mp-8372,164,13.95006666,2.468500385,Ca1Si2,0.016048885,64.74587692,,5.85801591,-13.95410909,520,4.61E-05
mp-8374,194,26.29582311,2.073746267,Na4S2,0.103188965,124.9873287,,1.74196288,-19.32629727,520,1.14E-05
mp-8377,19,18.20744979,5.274757953,Te4O8,0.011496955,200.9722838,,3.55454835,-64.40951625,520,2.50E-08
mp-8387,148,56.47208116,7.925820393,Tl6Te1O6,0,303.7678278,,3.00452537,-57.23928778,520,2.20E-06
mp-8393,160,19.40768201,6.508911119,Tl3Sb1S3,0,212.0296479,,3.41931965,-25.98274644,520,0.0001128
mp-8395,15,6.949591359,2.811204987,Ca2Ti2F10,0.014669776,216.1166178,,2.46950485,-88.79958589,520,1.0000341
mp-8399,221,0.825710809,5.284380918,Cs1Cd1F3,0,94.99699661,,-1.40827985,-19.70997076,520,9.31E-05
mp-8401,221,1.203757047,4.626004865,Cs1Mg1F3,0.057703332,76.89072405,,-0.74242414,-23.973048,520,7.06E-05
mp-8402,221,5.873200297,3.936140248,Rb1Mg1F3,0.001715792,70.3544013,,-1.45914093,-24.4650737,520,0.0004922
mp-8405,164,1.813219451,4.804446744,Li3La1Sb2,0,139.3729316,,5.18176045,-24.20633876,520,5.00E-07
mp-8407,164,-1.140342957,3.442518264,Li3La1P2,0,106.9280143,,4.61192748,-27.55772467,520,0
mp-8409,166,2.20211537,4.017325479,K1Y1O2,0,66.13632537,,1.12440863,-28.46389692,520,1.60E-06
mp-8411,63,7.607677931,4.032090319,Na4Ag2As2,0,188.428526,,1.77019945,-23.3335991,520,3.30E-06
mp-8414,225,-14.80795044,3.66273631,K2Hf1F6,0.035840374,168.0502252,,-3.67940183,-54.15135544,520,0
mp-8415,189,-6.270118801,4.775954103,K2Hf1F6,0.060549431,128.8797271,,-1.48581279,-53.92897393,520,0.0005419
mp-8418,62,0.985502826,7.134040575,Zr4Co4P4,0,168.6421726,,7.54588745,-98.08013069,520,2.50E-08
mp-8422,66,19.63289648,3.918611169,Sr2Al4Se8,0,387.6724915,,1.95600269,-64.05510342,520,3.15E-06
mp-8426,225,2.965188994,2.236226043,K2Se1,0,116.6986989,,-0.698568,-9.00650046,520,2.69E-05
mp-8429,12,8.587417479,3.808243916,K4Ir1O4,0,179.9126777,,1.73003338,-44.12751906,520,2.9999933
mp-8430,129,2.209677188,1.964915371,K2Li2S2,0,132.0110182,,0.72857135,-21.64025879,520,1.67E-05
mp-8431,70,4.066225195,6.045787636,Ca2B4Rh4,0,146.9494087,,5.23203659,-66.17953445,520,2.65E-06
mp-8432,194,0.301005671,4.012066094,Ca2Cu2P2,0,111.4163293,,5.93636461,-28.20115675,520,3.15E-06
mp-8446,63,2.140593272,2.692751602,K4Cu2P2,0,213.0179863,,2.06598737,-26.08905445,520,1.65E-06
mp-8452,129,1.644914904,1.925666658,Na2Li2S2,0,106.9202655,,1.36713596,-21.97201737,520,1.70E-05
mp-8453,129,5.966862617,3.643816424,Rb2Na2O2,0.011886733,113.4336269,,1.22614587,-20.77108137,520,3.50E-07
mp-8454,221,5.960052834,2.787183046,K1F1,0.10353517,34.61266883,,-2.13996405,-8.22455586,520,0
mp-8455,221,11.78258267,4.971192284,Cs1F1,0.10975023,50.74080167,,-0.7215067,-7.81054676,520,0
mp-8456,194,5.810584758,8.145341129,Sr2As2Pt2,0,145.8137262,,4.04889607,-30.91552778,520,5.02E-05
mp-8458,198,15.58492995,8.494507015,Ba4As4Pt4,0,318.5077996,,4.38690816,-62.5257098,520,1.30E-05
mp-8459,63,10.54152929,4.169881305,Cd2S2O8,0,166.0376046,,0.48583797,-66.14095497,520,1.90E-06
mp-8468,129,10.385892,7.526680048,Sr2Sb4Pd4,0,240.0261526,,5.8150885,-48.41401786,520,1.50E-07
mp-8469,148,3.291874228,4.365223062,Li8Ir1O6,0.005760164,130.7598733,,2.58164712,-78.5106024,520,1.0596988
mp-8483,164,13.41448029,2.340716902,K4S2O6,0.048661212,224.5436653,,0.43453929,-63.17174778,520,0
mp-8484,205,6.254257631,5.310803634,Zn4O8,0.143226777,121.8267259,,2.73053725,-53.50520385,520,2.10E-06
mp-8487,62,10.32088399,8.662414259,Ca4Sb4Pt4,0,273.6802455,,6.42445989,-60.51246508,520,4.30E-06
mp-8500,12,9.70167374,2.508973408,As1S2N1F6,0.026865383,176.7435328,,-1.88282285,-46.65206934,520,3.00E-07
mp-8511,194,17.44095773,2.286484194,P2F10,0,182.9630772,,-3.97028555,-60.32641543,520,0
mp-8530,148,5.203414506,5.142210089,Ca1Mo6S8,0.019749268,281.6659036,,5.80509501,-113.2836652,520,1.26E-05
mp-8539,129,5.587461395,4.518850856,Sr2Sn2P2,0,174.4037029,,4.48087153,-26.66862693,520,4.67E-05
mp-8560,229,10.1359943,2.257255712,S1F6,0,107.4449493,,-4.41374751,-27.51616881,520,0
mp-8564,164,8.790188384,3.445859275,Cs1K2Sc1P2O8,0,214.9250724,,1.21433717,-95.60896393,520,8.86E-05
mp-8566,194,0.161697192,9.909384948,Ag4,0.005875492,72.30291616,,3.02551252,-11.30343859,520,5.00E-08
mp-8570,136,50.38007762,4.140306076,Ba12Zr8S28,0,1313.708529,,2.51475183,-296.348899,520,7.28E-06
mp-8577,221,0.89573878,3.991578473,Sc3Ga1C1,0,90.10849794,,3.99989063,-34.61207957,520,0.0005814
mp-8578,221,1.32129946,4.588765429,Sc3In1C1,0,94.70023154,,5.34510437,-34.31881811,520,9.38E-05
mp-8579,164,3.622214512,5.6106995,Ba1Ag2S2,0,123.4722922,,2.50559014,-20.1931874,520,0.0003981
mp-8601,148,20.37394951,7.173537186,Te8Mo6,0,369.5458567,,5.98944272,-93.74276214,520,4.19E-05
mp-8605,187,3.237565484,8.14910106,Sr1Sb1Pt1,0,82.41746634,,4.80512841,-14.73853972,520,0.000229
mp-8606,187,4.466844967,8.246322639,Ba1Sb1Pt1,0,91.4551503,,4.33355907,-14.93985411,520,5.39E-05
mp-8607,166,0.562791273,6.461137163,Na1Cu4Sb2,0,133.8204576,,5.92934246,-26.63986258,520,0.0010885
mp-8608,166,0.469670295,5.764125989,K1Cu4As2,0,127.656334,,4.46862505,-28.08364272,520,0.0008003
mp-8610,148,4.727886763,4.366924496,Li8Pt1O6,0,131.7991141,,1.76098207,-75.57601196,520,3.71E-05
mp-8612,160,8.620540054,5.757282658,Sb2Te1Se2,0.330994979,152.5878832,,4.7800285,-19.49378943,520,0
mp-8613,12,23.63107003,2.617460085,Mn2P2S6,0.006281518,231.0602283,,3.34100878,-57.81534556,520,4.9999382
mp-8615,141,5.038173457,5.028562834,Nb2B2O8,0.003281152,110.7661497,,3.16963559,-103.1008165,520,2.20E-06
mp-8616,163,63.10520791,2.766409764,Sc2Ag2P4S12,0,488.7980089,,2.14005267,-102.6512609,520,1.92E-05
mp-8624,199,11.19400698,3.913062097,K4Sn4O6,0,308.6056679,,3.1878009,-70.51933174,520,3.00E-07
mp-8628,166,-21.00758565,10.5461483,Te4Pt3,0,172.5153931,,6.86950428,-33.40638398,520,5.00E-06
mp-8630,198,8.746391738,10.10502363,Sb4Ir4S4,0,227.4576574,,7.93238,-74.174475,520,1.66E-05
mp-8632,225,0.315780474,6.074377115,V1,0.25225308,13.92576521,,5.86367662,-8.83437252,520,0.0012252
mp-8633,225,0.238933266,7.253804758,Cr1,0.39278716,11.90293327,,6.56541404,-9.2439167,520,3.40E-05
mp-8634,225,-4.716036529,8.441942396,Mn1,0.07506572,10.80637183,,6.58956106,-9.08418354,520,0.0016998
mp-8635,225,0.411238368,6.488882112,Zr1,0.04132536,23.3447011,,4.22221289,-8.5061966,520,0.0001791
mp-8636,225,0.01376239,8.147375968,Nb1,0.423769738,18.9355041,,4.95184438,-9.77087229,520,0.0001501
mp-8637,225,-0.21844532,9.868033676,Mo1,0.42786896,16.14426143,,7.83713932,-10.4344741,520,1.24E-05
mp-8638,225,-0.170022773,11.10067214,Tc1,0.06940624,14.65972725,,8.40341124,-10.28907062,520,0.0002169
mp-8639,225,-0.049749861,11.99157015,Ru1,0.116156595,13.99572188,,8.08460413,-9.16019599,520,2.16E-05
mp-8640,225,0.618882438,13.17229888,Hf1,0.071216245,22.50097845,,4.70796339,-9.88304915,520,2.05E-05
mp-8641,225,-0.206084709,18.47369196,W1,0.504228542,16.52476927,,6.57272796,-12.47957487,520,1.24E-05
mp-8642,225,-0.291248479,20.45511296,Re1,0.058801822,15.11622027,,7.47107853,-12.38505538,520,0.0002658
mp-8644,194,40.86084203,5.446692624,Ba4F8,0.137304125,213.8046299,,-0.57280376,-67.59177858,520,1.00E-07
mp-8645,164,12.23104229,6.065451535,Ge1Te7As4,0.012216622,346.4632404,,5.47085645,-45.43798073,520,0.0016074
mp-8658,129,7.540518182,3.73357612,Cs2Na2Se2,0,208.9076269,,0.91688905,-17.95072639,520,0.0002131
mp-8670,63,-0.517343072,3.241737597,Ca6Cr2N6,0,219.4939046,,4.84812068,-94.22029087,520,0.4064256
mp-8675,198,9.430283141,13.51802617,Hg4Pd4,0.075201238,150.8510441,,3.67533188,-22.69179342,520,9.85E-06
mp-8677,10,13.05734223,5.969755539,Zr1Ti1Te4,0.0147202,180.6615287,,5.16957854,-33.65768445,520,2.00E-06
mp-8683,194,22.89536947,3.163658271,K10As4Au2,0,569.2855243,,1.08095594,-43.37510165,520,0.00226555
mp-8688,216,-13.21057694,3.880828494,V4Ge1S8,8.39E-05,228.0297699,,5.56073648,-84.87235183,520,0.0013136
mp-8689,216,8.400078728,5.606233288,V4Ge1Se8,0,268.9706577,,4.4036752,-77.40016326,520,0.0019455
mp-8695,148,31.53080938,4.014944331,Mn2P2Se6,0,267.0066397,,2.71433521,-52.68306223,520,4.9783913
mp-8696,164,9.483325219,2.978478006,K3Na1Se2O8,0.003365166,237.6118005,,-0.65083633,-70.79352786,520,7.00E-07
mp-8697,167,3.64293222,3.346911306,Sc2B2O6,0,102.9641982,,2.15161156,-85.94870924,520,5.00E-08
mp-8703,217,5.787251444,3.879809317,Na3Sb1Se4,0.010356815,216.8091376,,1.91617433,-27.84132556,520,2.97E-05
mp-8710,166,7.470479626,7.393949057,Ca2Pt3O8,0,178.1831303,,3.17653258,-79.63336354,520,4.00E-07
mp-8723,194,17.46905572,2.787133306,As2F10,0,202.4647994,,-4.62621973,-52.43948055,520,0
mp-8724,147,14.56742376,3.293373163,K4Te2O6,0,255.9298037,,0.43336801,-58.68283638,520,6.62E-05
mp-8732,129,7.818209782,12.2202337,Ta4Se2,0,119.8108348,,5.79224522,-57.08606727,520,0.00018435
mp-8736,2,11.38368577,5.216660627,Sr1Mo6S8,0.002628738,292.7793674,,5.51234956,-113.2147733,520,2.80E-06
mp-8751,129,2.9465497,2.852130696,Rb2Li2S2,0,144.9397846,,0.84789465,-21.11723903,520,0
mp-8752,166,-62.51365478,2.341253194,Na4Cd1P2,0,188.8863515,,1.04331711,-19.40188187,520,7.17E-05
mp-8753,166,6.416104505,2.708215682,K4Hg1P2,0,256.8668466,,0.62410621,-18.13277893,520,1.43E-05
mp-8754,62,-2.576103944,3.508012148,Na4Li4Te4,0,298.2726186,,2.1326722,-37.44099828,520,0.0002114