material_id,spacegroup.number,delta_volume,density,full_formula,e_above_hull,structure.lattice.volume,band_gap.optimize_structure_gap,efermi,final_energy,encut,total_magnetization
mp-8755,62,12.89693256,3.01268327,K4Na4Te4,0,418.2111643,,1.00972242,-34.3345451,520,2.31E-05
mp-8756,129,2.345881407,2.76596196,K2Li2Se2,0,150.0860971,,0.41473306,-20.31051142,520,4.30E-05
mp-8759,63,11.21642484,4.961617098,Cs4Zr2O6,0,271.1105142,,1.1065506,-79.04313728,520,8.55E-05
mp-8771,65,-1.119224286,8.757489159,Lu2Ni3B6,0,112.0389215,,6.52945919,-73.0308668,520,0.0026139
mp-8772,225,0.388815351,2.850115075,Sc1B12,0,101.7769774,,6.35165435,-89.22262707,520,4.60E-06
mp-8780,162,0.810022035,6.723825761,Cr6N3,0,87.42423752,,7.82098549,-86.3940744,520,0.001102833
mp-8781,39,2.90624156,2.571694273,Sn2S2,0.047958705,194.7103716,,0.6445706,-17.85811517,520,3.70E-05
mp-8786,194,7.561415158,7.30047442,Zr4Ni2As4,0,177.863836,,6.64213512,-74.51575976,520,3.25E-06
mp-8799,129,5.035978085,2.717556085,Rb2Na2S2,0,171.7301906,,0.576934,-19.18609285,520,6.64E-05
mp-8806,69,49.60719032,3.302301977,Sr4Cu4O6,0.548833929,352.3220942,,1.85608148,-70.24836666,520,1.50E-07
mp-8812,225,8.291775376,3.569574098,Rb2Ge1F6,0,166.3370245,,-3.51146456,-42.67184883,520,4.00E-06
mp-8830,166,2.096889007,5.814511318,Na1Rh1O2,0,45.09222734,,4.23343554,-23.05156111,520,2.70E-06
mp-8836,15,7.234838675,2.825865687,Ca2Al2F10,0,190.44991,,-1.53825057,-82.49035301,520,3.00E-07
mp-8842,14,4.695384463,4.85472265,Ca4Si4Pd4,0,238.8624343,,5.18404267,-59.86557537,520,5.75E-07
mp-8843,198,8.925817273,5.203272811,Sr4Si4Pd4,0,283.5508173,,4.17568287,-58.23199804,520,5.00E-07
mp-8857,63,24.697402,4.858152997,Cs4As4Pd2,0,356.89466,,2.4374889,-37.69038805,520,5.98E-05
mp-8858,140,5.937699048,4.578004514,Rb2Cu2F6,0,149.4476478,,0.50138598,-42.2113544,520,0.0024891
mp-8860,225,12.48904801,2.588214466,Na3As1,0.045372261,92.31710628,,1.74542353,-10.10468906,520,8.33E-05
mp-8864,187,-1.742591031,6.509832688,Li1Co6P4,0,123.5705479,,7.66977563,-73.30051512,520,0.0075661
mp-8868,194,9.507622607,3.386127624,Ba6Na2N2,0,440.3523426,,1.75786345,-33.51570985,520,0.00026365
mp-8871,59,7.181074476,3.749589174,Cs2Na4B2O6,0,210.5299885,,1.87425602,-77.23348179,520,7.00E-05
mp-8872,59,7.054802241,3.153660196,Rb2Na4B2O6,0,200.3566588,,1.29334287,-77.68494399,520,0.00014215
mp-8873,82,2.805680572,3.5250516,Li1Ge1B1O4,0,72.72800154,,0.53133332,-47.71002404,520,7.77E-05
mp-8874,82,3.41399165,2.666064069,Li1Si1B1O4,0.00033062,68.41001071,,1.42214023,-51.85744917,520,0
mp-8880,186,3.749453402,2.306796516,Al2P2,0.004218133,83.43782259,,4.47006648,-20.73996901,520,0
mp-8881,186,5.161658256,3.590981525,Al2As2,0.006272763,94.24394904,,3.68170342,-18.72300339,520,0
mp-8882,186,7.843511807,4.01010357,Ga2P2,0.009890108,83.39480595,,3.58126189,-18.47901241,520,3.38E-05
mp-8883,186,9.680121975,5.054170416,Ga2As2,0.013247355,95.04547155,,2.80227939,-16.72661564,520,0
mp-8884,186,7.975503575,5.409812514,Zn2Te2,0.006300443,118.4880174,,2.84356791,-10.67769395,520,1.10E-06
mp-8885,62,27.70172447,4.634531502,Ba4Cd4S8,0.020117332,449.8319342,,1.65759469,-65.9233995,520,0.000298475
mp-8891,166,7.419085542,3.208381654,K2Zr1B2O6,0,148.5607128,,1.01653093,-82.52388888,520,5.00E-07
mp-8909,205,16.83849954,7.520915155,Ru4O8,0.066154868,117.5207713,,5.64869326,-87.81187699,520,5.55E-06
mp-8911,63,7.119820478,5.922081503,Cu2Ag2S2,0.024255829,114.1102686,,4.15314829,-22.76489484,520,2.25E-06
mp-8914,194,14.54172538,5.246903824,Sr4Ga4Sn4,0,349.460786,,4.38610928,-41.42345151,520,0.001095175
mp-8922,162,6.774679718,6.201167279,Cd1Sb2O6,0,121.0164244,,3.02962857,-51.3528227,520,2.00E-07
mp-8925,65,-39.83546835,8.714896253,Tl2Ag6Te4,0.242364593,298.4577316,,5.05336227,-33.20594061,520,2.40E-06
mp-8926,136,1.141468575,1.729459118,Li6B2N4,0.003074953,114.5408241,,1.02891285,-68.20832733,520,0
mp-8927,166,0.856794272,8.984978997,Ta1Cu1N2,0.127378699,50.36283082,,4.94856078,-34.78187985,520,2.87E-05
mp-8936,129,8.361132587,2.908730471,Sn2Se2,0.046100632,225.6921054,,0.39214842,-16.54494236,520,2.07E-05
mp-8938,180,-0.819878599,6.204198863,Si6Mo3,0.028619794,122.1364399,,11.09752968,-69.31324847,520,4.33E-07
mp-8939,180,-0.444796518,9.7352436,Si6W3,0.065856859,122.8159208,,10.86268718,-73.92753721,520,1.00E-07
mp-8943,43,10.09625175,6.560004429,Pt2F8,0,137.2361753,,,-39.32931533,520,0
mp-8969,166,-0.676101679,5.477005723,Mg2Ni3P1,0,77.51315435,,7.61329946,-28.84049129,520,7.33E-05
mp-8973,36,0,3.107329952,Na4Si8N12,0,259.0334049,,5.69452644,-173.3589183,520,1.00E-07
mp-8976,111,15.62972617,4.29948842,Cu2W1S4,0.003522582,169.6237763,,2.04988366,-40.90195023,520,6.87E-05
mp-8978,227,15.47678785,4.621977962,Cs2Nb2N4,0.008168179,182.3836939,,2.06671709,-61.21921898,520,4.06E-05
mp-8979,13,7.070274487,7.950037042,Ta2In2O8,0,150.2889359,,3.27972489,-97.04573105,520,1.96E-05
mp-8982,14,7.358057657,7.245631438,Ca4Si4Pt4,0.014756803,241.3221013,,5.81740529,-65.51290206,520,1.53E-06
mp-8983,62,4.627001916,7.677790391,Ca4Si4Pt4,0.036234676,227.7388304,,6.06931426,-65.25516759,520,3.24E-05
mp-8994,164,10.50278001,3.831981508,Rb2Nb1F6,0,163.7287258,,1.96124838,-49.87828814,520,1.0000215
mp-8995,164,10.18874433,4.226922905,Cs2Nb1F6,0,185.7023686,,2.32208568,-49.80983987,520,1.0000334
mp-9008,51,16.11313376,5.837094122,Rb2Te2Au2,0,233.2935064,,1.7393688,-18.89582583,520,8.39E-05
mp-9010,63,17.56976133,5.34700497,Rb2Au2S2,0,195.3386927,,1.11462798,-21.32758295,520,2.55E-06
mp-9023,187,3.41939272,8.307446586,Sc2Si2Au2,0,107.9414207,,6.94201166,-34.52570357,520,5.65E-06
mp-9024,187,3.342188993,11.44277579,Lu2Si2Au2,0,116.0989769,,6.22579701,-31.11428565,520,2.70E-06
mp-9025,186,4.312912282,8.376806998,Y2Si2Au2,0,124.4721005,,5.90083483,-35.29125098,520,1.52E-05
mp-9027,227,5.735328561,3.14333887,Ti4S8,0.022005892,236.6596776,,4.21209423,-79.68766862,520,1.50E-07
mp-9029,63,1.388617785,3.133701874,Ca6V2N6,0,225.943393,,3.87393541,-95.05158265,520,1.84E-05
mp-9035,166,13.41949728,4.974203075,Na1Lu1S2,0,87.49246979,,2.22286002,-21.50121534,520,0
mp-9040,221,1.644851291,4.835879243,Ca3Au1N1,0.021283654,113.7295976,,3.48843475,-21.40306236,520,0.0021732
mp-9056,148,9.155924596,3.787820047,Zr1Pd1F6,0.006491552,136.6171341,,-1.51441949,-46.56592608,520,1.9999978
mp-9059,166,4.682502947,4.080480138,K1Li6Ta1O6,0,145.5602849,,0.75119647,-84.86604198,520,0
mp-9060,221,2.887990861,5.035813159,Rb1Pd1F3,0.041562524,82.0681667,,0.81010903,-21.09111818,520,7.39E-05
mp-9061,221,3.634622792,4.202387333,K1Pd1F3,0.032744217,80.0215597,,0.7883339,-21.19876006,520,0.0001334
mp-9062,189,17.76218109,2.714326917,Rb6S6,0,431.4170153,,0.77810278,-41.56512436,520,3.60E-05
mp-9063,189,24.2946007,3.347842845,Rb6Se6,0,489.3397817,,0.30299051,-37.96842623,520,1.67E-08
mp-9064,189,23.6576687,3.597211825,Rb6Te6,0,590.1360565,,1.1221743,-34.79416977,520,1.80E-05
mp-9066,31,9.000445194,3.010820207,Na2Li4As2O8,0,193.9058112,,0.03397713,-88.90019455,520,2.65E-06
mp-9078,198,2.557054891,8.517819663,Ba4P4Ir4,0,281.1300742,,5.20115424,-75.66169666,520,1.05E-06
mp-9117,123,4.039152612,6.587975427,Sr2Y1Tl1Cu2O7,0.012875389,178.3591308,,4.22819503,-79.4043451,520,0.0030413
mp-9122,2,2.095564691,2.717691978,Ca2P6,0,162.5279896,,5.94468417,-41.47423507,520,4.50E-06
mp-9124,216,1.051241985,4.577798295,Li1Zn1As1,0,53.42092978,,2.6475932,-9.39868952,520,0.0001642
mp-9125,162,5.705622506,5.03665393,Ca1Sb2O6,0,125.1488249,,2.9807595,-57.15447668,520,1.20E-06
mp-9126,162,6.427139987,5.230440105,Sr1Sb2O6,0,135.6055424,,2.33739748,-56.97986496,520,0.0001443
mp-9127,162,7.480559718,5.357450247,Ba1Sb2O6,0,147.7973747,,1.89615595,-57.12191866,520,0.0001362
mp-9143,148,4.714716971,2.694974242,Li1P1F6,0,93.59810562,,-2.55681557,-40.32616599,520,0
mp-9144,148,7.141141734,3.195799331,Li1As1F6,0,101.7653334,,-3.22173459,-36.80790653,520,0
mp-9145,2,30.47355398,3.743982195,Rb4Sn2Se6,0,467.0515343,,0.36269158,-43.72248012,520,6.73E-05
mp-9146,12,11.32714431,8.263283344,Cd1Hg1O2,0,69.32905636,,0.72124676,-13.87892426,520,0
mp-9157,12,9.165697914,2.530485984,K6Al2O6,0,252.3464235,,0.71907462,-71.443897,520,3.00E-07
mp-9166,166,1.071878581,2.385825234,Mg1C1N2,0,44.7731797,,2.85186248,-29.95988421,520,0
mp-9172,63,5.228870644,2.497573825,Li8Ti2O8,0,185.6671775,,-0.00472833,-113.8734048,520,3.00E-07
mp-9173,62,4.421545885,3.74615238,Ti4O8,0.059201832,141.606924,,1.81287069,-106.9699626,520,5.40E-06
mp-9178,15,24.48924808,4.428747689,Cd2Se4O10,0,262.7078179,,0.4139885,-79.64256752,520,9.20E-05
mp-9198,1,0.905976078,3.359000907,Fe1Si4P4,0,144.3922336,,7.33354209,-54.35146075,520,0.0008058
mp-9200,221,6.585014854,3.644827324,K3Au1O1,0,150.4628389,,0.44579271,-15.32748445,520,5.00E-05
mp-9201,166,28.85486876,7.7506578,K4Ge2Au7,0,360.0255539,,2.27271352,-41.09861413,520,0.0003661
mp-9205,11,13.99383129,2.829660799,K2Se2O4F2,0,198.4147804,,-1.22136204,-48.49839539,520,0.0001329
mp-9212,33,6.353941205,2.66860572,Na4Al4O8,0,204.0234917,,1.52481131,-101.3015738,520,4.75E-07
mp-9223,189,2.33228235,7.36433942,Sc3Ge3Ru3,0,147.9168448,,5.8303012,-67.82598714,520,0.000397133
mp-9225,62,4.346590439,8.832800121,Sc4Si4Pt4,0,201.6269849,,7.2596721,-85.60403749,520,6.75E-07
mp-9227,176,1.665286171,5.002865436,Ti6Se8,0,304.9930992,,4.58791325,-92.31615619,520,1.86E-05
mp-9235,194,1.771425703,7.420433359,La2Ni2Sb2,0,142.9317792,,8.45887928,-34.97734181,520,0.0003587
mp-9244,194,2.972097082,2.15144541,Li2B2C2,0,45.94318317,,5.08951505,-37.92817282,520,0
mp-9248,36,0.485416308,3.910783437,Si2Cu4S6,0.010464644,213.4681486,,5.55266311,-57.30864888,520,0.00025495
mp-9250,129,4.016972674,3.482203862,Rb2Li2Se2,0,163.4393585,,0.56700103,-19.85162572,520,6.22E-05
mp-9251,164,34.65333258,9.499054585,Tl2Te6Pt4,0,341.7034769,,5.81081496,-53.01003951,520,5.35E-06
mp-9252,154,24.39284735,6.995157963,Hg3S3,0.00808427,165.6857697,,0.90930378,-14.04082797,520,7.17E-06
mp-9258,205,3.455487665,4.415007743,Si4O8,0.571838716,90.39379467,,8.91982239,-88.12185961,520,0
mp-9259,166,6.509461861,4.849208074,Ba2Mg1B2O6,0,142.6507226,,2.3998597,-78.78036694,520,2.00E-07
mp-9262,225,12.53507449,4.825222542,Cs2Pt1F6,0,197.8394808,,-1.48003512,-38.67148692,520,2.29E-05
mp-9264,194,13.65323214,6.916607622,Na2Te2Au2,0,166.8826395,,3.77728329,-18.681472,520,3.60E-06
mp-9268,189,16.10938643,2.728360191,K6Se6,0,431.1170134,,0.35043974,-38.91373097,520,5.77E-06
mp-9270,29,9.079673738,10.09023892,Sb4Ir4S4,0.004463343,227.7909394,,7.91458979,-74.12091489,520,1.71E-05
mp-9272,164,27.80368583,8.187477363,Tl2Pt4S6,0,280.1867162,,4.00301503,-59.08439001,520,3.40E-05
mp-9273,166,16.29794242,6.198841613,K3Sb2Au3,0,254.9442878,,2.20686458,-25.14814574,520,9.13E-05
mp-9274,166,22.01950808,6.424545623,Rb3Sb2Au3,0,281.9427959,,2.12658536,-24.71210166,520,3.93E-05
mp-9281,181,24.16806249,6.004452162,Zn3Te3,0.15115521,160.1306685,,4.00924585,-15.14741232,520,9.00E-07
mp-9289,129,5.538395777,7.535141331,Zr2Sn2Te2,0,148.766522,,7.94501577,-35.46831702,520,5.85E-06
mp-9295,215,6.140543365,6.82248521,Ta1Cu3Te4,0,214.6684004,,4.55271594,-38.83679812,520,0.0009394
mp-9324,176,15.63170652,5.135571339,Ba6Mn2N6,0,329.1214408,,3.63570197,-89.01548609,520,0.0005359
mp-9330,148,34.45155429,3.152348027,Cd2P2S6,8.42E-05,252.4033162,,1.74056434,-41.51441573,520,2.75E-06
mp-9344,11,18.74629503,6.900804505,Ti2Tl2Cu2Te6,0,336.2061419,,5.7128569,-53.17560096,520,1.50E-06
mp-9348,87,8.646234948,3.202231113,K1Rb2Sc1F6,0.010876016,191.337245,,-2.84591722,-53.79913269,520,7.71E-05
mp-9349,225,-244.5116652,3.148523736,K1Rb2Sc1F6,0,194.6010671,,-2.83377305,-53.90789285,520,8.34E-05
mp-9350,186,4.620282166,9.11122706,Sc2Ge2Au2,0,114.6592609,,5.51859853,-32.79486692,520,1.10E-06
mp-9361,166,2.3439035,3.847726129,Rb1La1S2,0,124.5075473,,2.36491163,-21.74877004,520,0.0001871
mp-9369,166,21.41073258,4.595988868,Rb1Yb1S2,0.293657979,116.5696171,,0.47181975,-15.92284166,520,0.7751366
mp-9370,166,1.026437277,5.082707764,Rb1Lu1S2,0,106.036496,,1.81718614,-21.11303991,520,0.0001235
mp-9374,194,-4.383612335,7.825009285,Mn2Mo2N4,0,75.9248245,,8.88028335,-76.08897373,520,0.00070545
mp-9379,166,7.382587232,5.486150782,Sr1Sn2As2,0,143.7368611,,5.3266102,-21.77647238,520,3.00E-06
mp-9381,189,3.525921871,7.415099179,Zr6Fe1Te2,0,192.2278329,,6.33479256,-70.78880725,520,0.0005058
mp-9382,166,1.380606683,5.779513503,Sr1Zr1N2,0.012836211,59.43316652,,4.27569501,-32.0441458,520,9.00E-07
mp-9383,166,0.694369938,8.451730657,Sr1Hf1N2,0.03139056,57.78738203,,4.52010341,-33.83290614,520,5.00E-06
mp-9384,164,32.25342623,6.511687546,Cs1Au3S2,0,200.9305703,,0.92138274,-21.97201068,520,0.000158
mp-9385,164,23.90714822,7.181322523,Rb1Au3Se2,0,192.9125132,,1.07030524,-20.49291021,520,3.25E-05
mp-9386,164,30.23814157,7.036770416,Cs1Au3Se2,0,208.0697482,,0.86299185,-20.57747915,520,5.70E-05
mp-9391,11,21.2885895,7.839496698,Ta2Ni4Te6,0,288.5518729,,5.90480431,-70.012704,520,4.55E-06
mp-9413,225,3.216761459,3.988676959,Ca2Ti1Si1O6,0.104215544,104.9546085,,4.94857386,-76.87296452,520,5.70E-06
mp-9425,129,6.852485317,5.348113078,Sr4Ga2Cu2S2O6,0.040601579,241.2960603,,4.5291802,-90.57459604,520,1.07E-05
mp-9437,216,0.274555591,8.448732249,Nb1Fe1Sb1,0,53.1671136,,7.16287123,-23.71039975,520,5.48E-05
mp-9463,129,1.204901089,7.361501395,Zr2Ge2Sb2,0,128.8568126,,6.09593,-38.16292178,520,5.15E-06
mp-9472,225,3.765883898,7.313214923,Li1Ag2Ge1,0,67.0547874,,3.17924783,-12.84193522,520,0.0002497
mp-9479,166,16.22199989,3.57923705,Mg1Al2Se4,0.002707917,182.8411583,,2.73107754,-29.75729645,520,5.00E-07
mp-9480,159,9.289987752,2.503635872,K2Al2Si2O8,0.002243956,209.80346,,0.79501864,-99.26538803,520,0
mp-9481,2,40.06266525,4.248826877,Tc4S8,0,253.4564974,,3.75118013,-81.93834506,520,2.14E-05
mp-9486,123,5.118713624,2.43093284,K2Al1F5,0.003724793,136.7336649,,-2.56790664,-41.33943769,520,1.00E-06
mp-9490,121,13.74843748,3.92108523,K1Ag2Sb1S4,0.005478683,213.8007439,,2.14267285,-30.45920016,520,0.0001392
mp-9509,11,32.26446216,3.248325457,K4P2Au2S8,0,444.1261027,,1.39604396,-67.10135157,520,3.48E-05
mp-9511,11,36.55766249,3.418493726,K4As2Au2S8,0,464.7135417,,1.06615625,-63.48790816,520,4.37E-05
mp-9514,164,0.532126388,2.929436872,Mg1Al2C2,0.007005825,57.98236238,,6.97933041,-27.85847901,520,2.80E-06
mp-9517,129,2.251522666,4.596149525,Sr2Ti2N4,0,118.1418471,,3.8677297,-63.40570616,520,3.51E-05
mp-9519,160,17.19757818,3.097365356,Ag1C1N1,0.341669376,71.77786284,,-2.32183881,-18.98467278,520,0
mp-9549,189,0.179720833,5.968423335,Sc3Fe3Ge3,0,144.7645665,,4.93100531,-63.25475393,520,1.8449116
mp-9550,189,-2.010560955,4.506018201,Sc3Mn3Si3,0,141.4873677,,6.00383293,-68.35057099,520,0.0102959
mp-9556,194,0.882965777,4.139151976,Sr2Zn2Si2,0,145.3185096,,3.47897703,-19.37906349,520,1.24E-05
mp-9561,164,6.046365597,3.30850917,V1S2,0.016437203,57.75432629,,2.11975524,-19.89987913,520,0.3237373
mp-9562,129,-0.120198485,3.457551504,Li2Be2As2,0,87.28785273,,3.68649857,-23.51561498,520,1.30E-06
mp-9564,164,2.568559372,3.332021605,Ca1Mg2As2,0,118.87389,,3.31833141,-19.23933645,520,3.78E-05
mp-9565,164,2.149626459,3.812302767,Ca1Mg2Sb2,0,144.7010867,,4.23959288,-17.02396478,520,2.81E-05
mp-9566,164,4.61699683,4.083896866,Sr1Mg2Sb2,0,154.4088211,,3.72880712,-16.9124975,520,1.51E-05
mp-9567,164,5.94957141,4.307466368,Ba1Mg2Sb2,0,165.5567458,,3.47686598,-17.22713803,520,7.10E-06
mp-9569,164,0.597851546,3.980764462,Ca1Zn2P2,0,97.12852029,,4.14042268,-18.85642343,520,5.94E-05
mp-9570,164,2.983712792,4.745560598,Ca1Cd2P2,0,114.3685899,,3.53794374,-17.49436216,520,0.0001711
mp-9571,164,2.221184786,4.959875358,Ca1Zn2As2,0,107.3817233,,3.62397731,-17.14595955,520,5.40E-06
mp-9573,194,1.861685027,3.089422666,Na2Be2As2,0,114.9410426,,2.55027188,-21.77689608,520,1.80E-06
mp-9574,194,2.648829372,3.615103466,Na2Be2Sb2,0.049663685,141.2561081,,3.50268201,-19.38127142,520,1.28E-05
mp-9575,186,1.52538613,4.473698163,Li2Be2Sb2,0.039218684,102.2322502,,5.62992639,-21.02219011,520,4.63E-05
mp-9576,13,6.895835018,3.851247601,K4Sb4Se8,0,549.7894367,,1.51148418,-60.15482096,520,1.36E-05
mp-9586,194,5.439573763,5.335199922,Nb2Sn2S4,0,171.6477867,,6.00119712,-51.66678401,520,0.00136395
mp-9587,129,1.290421153,12.82427816,Ta2Mo2N2,0.023966981,75.33239695,,8.51222219,-66.65557019,520,2.08E-05
mp-9588,14,1.950028363,2.004394063,Li8P8,0,251.2836918,,4.092164,-66.94009504,520,6.17E-05
mp-9595,13,8.038347553,5.954350695,Nb2In2O8,4.18E-05,151.5547132,,3.11752566,-91.28741117,520,4.86E-05
mp-9615,164,-0.236052897,3.091694122,Li1Ti1S2,0,63.88121999,,5.65789943,-23.77761607,520,0.0018882
mp-9625,62,8.923587916,2.888396299,Li4Mg4P4O16,0,290.249447,,2.13450824,-186.4665842,520,4.98E-05
mp-9631,194,11.55803518,6.059586895,Al2Ag2O4,0,91.44468656,,4.13764659,-48.65271723,520,7.45E-06
mp-9636,148,10.16841438,3.846453982,Cs1Sb1F6,0,159.1511218,,-3.1345244,-37.10869319,520,0.0001138
mp-9657,148,5.461290344,4.300377593,Li2As2O6,0,100.2883693,,1.93651971,-58.54916997,520,0
mp-9664,15,5.650853129,1.772986135,K6B2P4,0,355.9995468,,1.05283483,-46.41289041,520,1.47E-05
mp-9665,15,11.46332978,2.395345875,K6B2As4,0.011582389,385.3684234,,0.80613992,-42.7642859,520,1.82E-05
mp-9675,15,15.64138669,3.426478735,Cs6B2P4,0,456.9720139,,1.76047251,-45.0260322,520,0
mp-9676,72,13.26178208,3.123993888,K4Na2Ga2As4,0,340.9879677,,1.57204298,-37.78116899,520,4.16E-05
mp-9687,63,10.03136709,4.359134288,K4P2Au2,0,233.2354509,,1.93375198,-25.695852,520,1.83E-05
mp-9692,2,27.55605988,3.180000572,K4Ge2Se6,0,404.9172547,,0.02212056,-45.05940767,520,5.10E-06
mp-9693,2,26.59765381,3.372813354,K4Sn2Se6,0,427.1327872,,0.47955954,-44.10530718,520,1.22E-05
mp-9697,11,62.9184061,4.340095795,Cs12Ga2Sb6,0,943.0702499,,2.55243203,-49.58632981,520,0.00079115
mp-9698,11,42.33405396,3.531379409,Rb12Al2Sb6,0,851.1695493,,2.00292157,-51.81901513,520,7.37E-05
mp-9702,194,7.626248989,3.754218838,Sr6B2P2O6,0,311.9569907,,2.54333694,-101.3065837,520,3.40E-06
mp-9705,229,7.072901313,4.482258475,Ba4Na1B3N6,0,255.1684805,,2.24611724,-92.63688784,520,7.50E-06
mp-9712,194,14.9245894,4.515954076,Ba6B2P2O6,0,369.0022678,,2.60515651,-101.1858972,520,9.80E-06
mp-9718,15,16.54377342,3.206481621,Rb6B2As4,0,431.9628232,,0.81670378,-41.81260674,520,6.75E-06
mp-9720,15,13.09893381,2.72554212,Rb6B2P4,0,401.084409,,1.04650836,-45.3812465,520,2.09E-05
mp-9721,221,0.988428128,3.251300413,Ca3Ge1O1,0.000582237,106.6780645,,4.07828675,-23.42365164,520,0
mp-9723,229,3.110288474,3.740877284,Sr4Li1B3N6,0,210.3570259,,2.31421913,-94.09250494,520,0
mp-9731,63,23.09191482,5.618065476,Rb2Au2Se2,0,213.6356229,,0.78894953,-19.98555125,520,1.28E-05
mp-9732,189,5.593641113,3.652623424,Ba3Na3P3,0,260.8908926,,2.58333852,-32.90170156,520,0.000176
mp-9741,12,7.747218817,6.199948629,Na3Cd2Ir1O6,0,155.8789591,,2.58266903,-58.70361526,520,0.0017426
mp-9743,194,5.516232536,6.12270651,Sr2As2Pd2,0,145.8901341,,3.38643852,-28.86023924,520,9.15E-06
mp-9744,187,3.594313589,6.551416575,Ba1As1Pd1,0,80.77057001,,3.2439522,-14.5703758,520,0.000227
mp-9752,162,4.662133351,3.553496825,Li2Nb1F6,0.030375225,103.1693099,,2.31192358,-51.70628335,520,1.0001253
mp-9761,182,3.090508962,8.250240546,Re2O6,0.105659391,94.27770641,,3.11709314,-66.67935662,520,4.37E-05
mp-9775,189,5.582956832,3.712404054,Na3Sr3As3,0,248.9616518,,2.2599137,-30.84934236,520,6.44E-05
mp-9778,63,7.923905841,3.092660986,K4Ag2P2,0,233.0685497,,1.35826361,-23.68102964,520,1.35E-06
mp-9780,11,24.27042541,6.227955722,Rb2Hf2Ag2Te6,0,402.4068216,,3.67410785,-55.6600829,520,0.0001953
mp-9783,166,12.61174382,5.307818663,Ba3As2O8,0,215.808436,,1.20088598,-84.12350581,520,7.99E-05
mp-9791,160,19.33321771,6.378213769,Tl3As1S3,0.009835796,204.1802279,,3.17376804,-26.30776595,520,0.0001725
mp-9797,2,31.98385728,4.522739209,K2Sb4Se8,0.002001338,439.4519892,,2.83770561,-53.55893963,520,1.88E-05
mp-9798,2,33.0275308,4.731767874,Rb2Sb4Se8,0,452.5842199,,2.74573612,-53.38262892,520,2.44E-05
mp-9801,62,2.381133356,11.54637831,Hf4Co4As4,0,179.6791036,,7.15365238,-96.67986101,520,2.25E-07
mp-9812,167,4.245890785,4.244194298,Zn2C2O6,0,98.13938979,,1.72341881,-64.74001763,520,2.50E-07