material_id,spacegroup.number,delta_volume,density,full_formula,e_above_hull,structure.lattice.volume,band_gap.optimize_structure_gap,efermi,final_energy,encut,total_magnetization
mp-764220,1,2.65664188,3.33846764,Li1V2O1F5,0.049594808,109.3352158,,,-55.51722325,520,3.9999998
mp-764222,12,1.845239376,4.097092904,Li2Co4O2F6,0.073649851,160.3370732,,1.34121114,-73.1006641,520,5.99999475
mp-764225,156,6.834871944,4.520762969,Li1Co5O5F1,0.060501122,147.1468186,,2.82079146,-69.61116199,520,14.9890668
mp-764226,65,1.37170351,2.892238887,Li2V1F4,0.091898954,80.84820184,,1.76702526,-37.98572686,520,2.9999771
mp-764227,65,0.734905853,3.695723284,Ca3Mn1O4,0.021349413,107.462194,,3.04528788,-54.17719116,520,4.9999967
mp-764229,13,0.951010752,3.074336502,Li2V2O4F4,0.028290111,138.141409,,-0.87929464,-73.66235719,520,0.0002271
mp-764243,5,1.300569612,2.983510425,V2O2F6,0.050038399,137.9587929,,,-58.60618074,520,0
mp-764258,59,1.370213983,3.553483234,Mn2O2F2,0.09211423,84.05385769,,0.1089828,-40.10538994,520,4.00002815
mp-764277,9,0.811181572,3.312971855,V2O4F2,0.01482274,102.1881282,,-0.52290337,-54.37479804,520,0.00015315
mp-764279,166,7.847691044,3.954462706,Li3Mn1V3O8,0.095339359,149.7336786,,3.4146021,-104.9209252,520,8.9999988
mp-764280,55,1.220015097,2.996985216,Li4Mn2F8,0.040784674,160.4737527,,-0.23880772,-76.75313411,520,4.99955965
mp-764285,5,1.71724857,2.91622829,V2O2F6,0.094820079,141.1417269,,-2.51072121,-58.15836394,520,0.00077645
mp-764286,62,4.127157166,4.537216327,V4O4F4,0.03285837,125.808917,,3.3141665,-85.99146076,520,2.000065775
mp-764292,8,1.060516001,2.480597946,V1O2F1,0.07074109,68.23886823,,-2.47393762,-26.96372562,520,0.0001677
mp-764305,9,1.686517769,4.074284049,Mn4O2F4,0.069550192,133.5775034,,2.15588967,-69.29255886,520,10.0000041
mp-764309,59,3.25623526,3.707428004,V2O2F2,0.021341037,76.98359502,,1.64987316,-43.06483438,520,1.9999677
mp-764312,44,0.002670727,3.126750475,V1O1F2,0.062782939,55.72979348,,-1.40256666,-25.70823664,520,1.0000019
mp-764320,156,1.771441952,2.370051116,Li5Mn1O1F5,0.062023067,140.5713797,,1.8049559,-63.41967607,520,4.9999948
mp-764322,70,4.937082273,4.358391523,V4O4F4,0.076069213,130.9708568,,,-85.47293064,520,1.99999995
mp-764324,74,3.164963889,2.903691829,Li4V2F8,0.022487208,161.0586295,,1.61538775,-76.94321816,520,2.99998495
mp-764332,156,4.891548767,3.755903586,Li1Mn5O5F1,0.090180492,168.2805113,,2.82582091,-87.17080217,520,25.001044
mp-764337,148,0.222025813,3.336518067,Li2Mn2F6,0.037374623,118.3241551,,-0.15413035,-57.56980695,520,5.0000422
mp-764338,82,0.771159501,2.455727563,Fe1P1O4,0.000160192,101.9805538,,-1.26608545,-42.63093306,520,5.0000329
mp-764345,62,2.787764898,3.687242243,Cr4P4O16,0.023018176,264.7455113,,2.5699277,-181.739821,520,3.000659125
mp-764351,12,3.1238384,3.508178283,Li2Mn4O2F6,0.090620172,179.6885517,,1.90032375,-88.09994473,520,9.99988115
mp-764352,160,1.273549326,3.200715035,Li3Mn3O1F7,0.063310814,173.6044801,,1.09096209,-82.46002194,520,14.9998676
mp-764355,7,1.239090778,2.643995441,Li2Fe2Si2O8,0.055398549,194.5284645,,0.08315239,-95.91890383,520,4.99788145
mp-764358,9,1.049295051,3.515274323,Li2Fe2F6,0.021173168,113.16407,,,-52.7317001,520,4.00000015
mp-764362,148,0.468399619,3.806486023,Li2Ni2F6,0.019122964,106.9917257,,-0.48133952,-44.94478662,520,2.00001005
mp-764365,63,0.701564266,5.896097233,W2O4F4,0.00066668,142.977267,,-0.66645945,-64.71979538,520,0.00176795
mp-764370,143,1.061925646,3.544795041,Li3Co3F9,0.084215175,172.6724176,,,-73.54628002,520,3.0000001
mp-764378,1,-2.898618212,3.342897623,Li1Co3Sb1P6O24,0.083220232,434.8076842,,,-230.1228882,520,6.9999999
mp-764379,9,7.888852902,3.661157887,V4O4F6,0.059024967,173.1467127,,1.05815501,-94.96241634,520,2.9999782
mp-764416,14,14.52833488,2.869292109,Li16Mn8P12O48,0.034125294,978.1753536,,1.69960883,-577.3038248,520,9.005230275
mp-764425,21,0.408385128,4.904353352,Li1Y3W1O8,0.092726142,198.2392295,,0.83080631,-105.8723829,520,8.00E-06
mp-764430,162,0.960323628,3.251411178,Li2Mn1F6,0.026637841,93.36374149,,-1.92519261,-45.48433527,520,3.000194
mp-764433,10,2.841506711,3.498769982,Li4V2O4F2,0.114450723,109.9385214,,3.9157238,-73.47625226,520,2.0000001
mp-764434,164,1.942046088,2.096223643,Li2V1F6,0.073765481,141.6487667,,-2.5880534,-47.56242104,520,0.9999999
mp-764467,9,2.653158673,3.40052459,Na4Fe2O6,0,146.3224275,,1.27114044,-62.86929274,520,3.99998785
mp-764509,12,4.37809629,4.677855078,Mn6O10F2,0.061395712,187.293548,,2.40070204,-125.0592802,520,9.99552065
mp-764562,12,9.887244783,3.639439753,Na4Fe2O6,0.001629549,136.7169253,,1.90356595,-62.84973815,520,3.9987622
mp-764602,12,-2.003275406,2.972888555,Na4Co2O6,0.083046013,170.8201099,,0.60405032,-58.6133944,520,2.99926605
mp-764642,121,0.067804889,3.270411231,Li2Co1Si1O4,0.026260433,83.726491,,2.33604855,-51.49638073,520,2.99984
mp-764648,194,0.14533956,3.932502395,Li2Ti2O4,0.029127125,73.31010428,,5.65175563,-60.24706513,520,0.88756255
mp-764674,63,2.675957568,4.734927662,Co4O2F6,0.078671299,133.8698978,,1.46426265,-61.91036097,520,6.77161415
mp-764683,12,-0.188186286,2.917397311,Li5Ni1O3F2,0.090378399,102.1080515,,0.97484472,-52.13116231,520,0.9740873
mp-764686,164,3.791989301,3.454173045,Li4V2O4F2,0.006646839,111.3579411,,3.01036802,-74.76989887,520,2.0000352
mp-764690,74,2.423374806,3.041786313,Li4V2O4F4,0.096121533,147.1979728,,1.49393857,-84.06357506,520,1.0000001
mp-764691,160,2.882270567,3.069881675,Li4V2O4F4,0.06596514,145.8508263,,1.86562036,-84.48576456,520,1.0000001
mp-764692,63,1.600319768,3.966422749,Li2V2Cu2O8,0.075956117,155.2569142,,2.11740768,-87.82724946,520,1.0195594
mp-764694,85,3.203418513,2.399844354,Li2V2F10,0.070883998,211.5588051,,-2.37949786,-75.42377765,520,1.00005245
mp-764696,8,2.813225627,3.299097792,Li4Ni2O1F7,0.071508412,148.049364,,-0.39787289,-64.12594467,520,4.9998397
mp-764697,44,0.976020788,2.360588788,Li3V1O1F5,0.095632505,128.5583219,,-1.04629323,-54.24783338,520,0.9998644
mp-764698,161,3.685109273,3.261813532,Li2V2F6,0.01874094,116.9649459,,2.1034742,-57.69006331,520,3.0000218
mp-764717,164,1.011876324,2.189379053,Li2Mn1F6,0.081731184,138.6529721,,-4.19192678,-44.98849519,520,2.999915
mp-764718,12,6.146169231,4.290395274,Li3Fe4O8,0.101832281,144.0542426,,2.86506399,-90.60733679,520,19.0011038
mp-764721,5,2.466926448,3.136014481,Li2V2O2F6,0.026356204,138.600476,,-0.23748808,-71.25874757,520,0.99996515
mp-764734,146,9.537293102,3.511058237,Mn3V1Sb2P6O24,0.08259348,486.7099696,,2.13839716,-259.3357307,520,13.9998361
mp-764739,6,-4.072607507,3.515569444,Mn4Fe4Co4P12O48,0.022568403,858.9577501,,2.34759088,-508.8815095,520,12.9999741
mp-764742,31,15.8742294,4.485915377,Fe4O6F2,0.094053234,132.2878635,,1.86453417,-73.13414177,520,9.0127432
mp-764744,1,4.75166846,3.292466171,V2O1F5,0.001123175,107.3621596,,-0.25614917,-50.55378064,520,2.999998
mp-764758,225,0.022835884,2.757405783,Li6Mn1F8,0.068037961,149.6922584,,0.34390969,-76.40262307,520,4.9999998
mp-764762,15,17.81282048,3.903010509,Li2Fe4O8,0.088889302,155.398977,,1.44426991,-85.39038982,520,8.9998479
mp-764784,9,1.518969736,2.36626008,Li2Fe2Si2O8,0.044658479,217.36088,,-0.6475933,-96.06926482,520,5.00041775
mp-764788,164,1.749227226,3.473335977,Li2Mn4O2F6,0.069244939,181.4910734,,1.56984711,-88.39919799,520,9.9998648
mp-764810,9,-0.526749832,3.295821264,Li2Mn2F8,0.056116646,138.9292152,,-1.66653139,-64.86682049,520,3.99992355
mp-764818,8,8.187906219,4.305282413,Fe4O5F3,0.082349596,138.9948593,,1.71045645,-72.58853666,520,18.9994779
mp-764819,15,2.865328687,3.385367088,V2O2F4,0.035675963,102.9449119,,-0.48481917,-51.63332909,520,1.00000935
mp-764822,8,2.729115223,3.458603686,Li4V2O4F2,0.098715292,111.2152861,,3.41219184,-73.66507743,520,2.00010215
mp-764828,160,2.390210759,3.510086385,Li2Mn4O2F6,0.069125605,179.590872,,1.71396234,-88.40086867,520,10.00004405
mp-764851,11,3.906583558,3.084300028,Na2Li2V2O4F4,0.082224941,162.4498234,,1.37934902,-82.1754336,520,0.9999641
mp-764895,4,4.552177466,2.853972595,Li2V2F8,0.023358552,155.7874187,,-0.63746513,-68.45396983,520,2.00000895
mp-764901,8,0.277391849,3.870051243,Li3Ni3O3F5,0.076989039,145.8394867,,1.10577017,-64.67387348,520,4.000234
mp-764906,11,7.402116184,3.493179693,Li2V4O8,0.06762483,164.3070434,,2.38370412,-101.639306,520,3.00000155
mp-764920,15,3.296410356,2.768845667,Li2V2F10,0.001974132,183.3645733,,-1.99753276,-76.38851577,520,1.00029685
mp-764922,15,5.600480872,2.796905438,V2F10,0.082676983,173.2831559,,-4.27735431,-61.93274359,520,7.60E-05
mp-764923,55,2.747035546,2.835301647,V2F8,0.041568721,148.6830938,,-2.98939919,-55.9639993,520,0.99886025
mp-764943,38,4.186889634,4.260514624,Fe4O3F5,0.086414907,142.7930897,,1.45191238,-70.41246611,520,18.9999745
mp-764949,55,-9.816108893,3.175996592,Mn2F6,0.005376425,117.0464349,,-2.10763166,-45.6882804,520,4.00011055
mp-764974,11,2.837557288,3.01143137,Li4V2O4F4,0.085815642,148.6817144,,1.05013093,-84.20785753,520,1.0000344
mp-764976,147,3.187891125,2.791963655,Li2Cr1P2O8,0.058268609,152.1511445,,0.82185838,-89.11514071,520,1.9999117
mp-764999,12,-1.661252409,4.821324452,Li2Co3O6,0.034519975,98.73635154,,3.38886561,-62.62538502,520,4.9994998
mp-765031,62,2.105400636,3.312188281,Mn4O4F4,0.059039476,180.3544658,,-0.66290106,-80.60767693,520,4.00055145
mp-765036,7,1.510924418,3.121329157,Li4Mn2O2F6,0.092699558,150.890059,,0.63792889,-78.12141423,520,4.000275
mp-765047,166,0.528136128,4.764007587,Li1Co4O8,0.042374431,129.2001117,,1.77590263,-73.91728207,520,2.9976526
mp-765073,15,0.937892488,3.110798534,Li4Mn2O4F2,0.041977919,127.9164923,,0.74645107,-71.84956541,520,3.99997905
mp-765125,70,-0.96432913,4.641651222,Fe4O4F4,0.078770478,129.9951366,,2.11383369,-71.94543731,520,5.00000055
mp-765139,2,2.501254568,3.161199846,V1Cr1P2O8F2,0.042054831,173.8056495,,,-99.0768034,520,2.9999999
mp-765140,9,1.583800561,2.65375217,V2F10,0.056891326,182.6306942,,,-62.24217148,520,0
mp-765142,9,-1.971568045,2.723817867,Li2Co2Si2O8,0.103800371,192.5930938,,0.01444816,-91.65266358,520,3.99988415
mp-765182,160,1.470709292,2.266930539,Li3V1F7,0.053529463,149.9829305,,-2.4988776,-57.32776945,520,0.9999758
mp-765183,59,0.801390114,3.61524341,Fe2O2F2,0.050370703,83.45110086,,-0.10580272,-36.1431173,520,4.99984635
mp-765184,65,6.015123442,8.222085684,W3O7F1,0.047956522,137.8411176,,3.84287646,-80.49885009,520,3.000081
mp-765195,15,6.99025648,6.192863156,W2O4F2,0.012382745,125.937336,,0.1177554,-55.50637195,520,1.00005545
mp-765198,160,0.361410543,2.361345343,Li3Mn1F7,0.05573459,146.7965308,,-2.91354761,-54.80127853,520,2.9999516
mp-765201,12,0.503243949,2.881705157,Li4Mn1O1F5,0.073117201,111.6129292,,-0.27276013,-58.28588117,520,3.9998939
mp-765230,4,4.215180536,2.8791593,Li2V2O2F6,0.006431432,150.9652835,,-0.9028468,-71.49784484,520,1.00000115
mp-765233,7,3.20803773,2.863559546,V2F8,0.045102578,147.2158738,,-2.93108643,-55.92866073,520,0.998633
mp-765237,15,3.444243137,2.598634852,V2F8,0.005493172,162.2241849,,-3.05311456,-56.32475479,520,1.00004725
mp-765253,55,0.901494559,3.28109828,Mn2F8,0.077867903,132.5270448,,-2.56197567,-49.59592528,520,3.00028125
mp-765254,26,0.638137964,4.248885947,W2O4F4,0.000375129,198.4068009,,-2.87463231,-64.72271089,520,0.00020485
mp-765255,8,6.285476318,3.759075015,Li2V4O6F2,0.083331737,155.3344769,,3.17192842,-98.5378898,520,4.0000315
mp-765271,12,1.400399894,3.035436934,K2Fe2O4,0.091123837,138.8876247,,0.5692677,-44.84267639,520,5.00005375
mp-765309,123,1.733366511,5.550165336,Li1Ni3O3F1,0.07250488,74.80215413,,4.77511154,-38.25478922,520,6.0010437
mp-765313,8,0.27989106,3.142514336,Li4Mn1O2F3,0.09242587,90.72607829,,0.95319054,-54.63295788,520,3.9999968
mp-765315,15,6.148076388,3.811751508,Fe2O4F2,0.33387769,93.08878039,,1.73471777,-44.46603584,520,5.00002405
mp-765331,166,2.053722738,3.866495022,Li2Mn4O6F2,0.048530478,157.8844984,,2.40547922,-94.29439143,520,7.9999462
mp-765334,9,0.878396975,3.57722633,Li2Mn2O2F4,0.084565009,107.577973,,,-59.19299159,520,4.00000005
mp-765356,12,2.287926316,2.360384523,Li2V1F6,0.075351114,125.7962382,,-2.07185299,-47.54815034,520,0.9999996
mp-765357,160,4.330792826,3.088996828,Li3V2O3F3,0.086114672,122.4034145,,1.64741084,-68.28557202,520,4.0001515
mp-765359,8,1.496945155,2.661383653,Li5V1O4F1,0.045572239,105.2225071,,1.99330254,-62.40483331,520,1.000149
mp-765389,5,0.15603927,3.632953376,Li2Ni2P2O8,0.085027231,146.8183653,,2.77169219,-86.63247758,520,1.9999357
mp-765397,8,5.826634856,3.274692827,Li3V3O3F5,0.091097911,160.5614073,,,-87.20591584,520,7.0000004
mp-765410,123,2.347426754,4.548914386,Li3Ni3O3F3,0.047708682,110.2045595,,3.77697161,-57.64289043,520,1.999782233
mp-765432,160,6.888141197,3.958046929,Li2V3Co1O8,0.023856732,148.3621997,,2.95839735,-97.65066204,520,6.0301497
mp-765438,166,5.321719014,4.147699595,Li3Cr3Co1O8,0.019651487,145.6238452,,2.39847696,-100.206224,520,10.0002357
mp-765441,160,2.269661999,3.732260573,Li1Mn5O3F5,0.079587429,188.9204856,,2.19754375,-94.27665693,520,24.9999864
mp-765444,21,1.733673576,2.622709514,Li2Si4Ni2O12,0.067386282,275.7975216,,0.61268324,-133.0254672,700,1.50006315
mp-765445,139,2.040682587,2.984734781,Li2V1F4,0.062097535,78.34274414,,2.24677494,-38.19433679,520,3.0000407
mp-765450,12,0.702415234,6.808599685,Mn2Cd3O5,0.026499648,128.555104,,2.8599999,-54.89840194,520,9.9883754
mp-765499,162,1.407366937,2.885880024,Li3V1F6,0.085763982,106.883617,,-0.49463949,-53.03021616,520,2.0000296
mp-765500,8,1.758962463,2.821420167,V2O1F7,0.078879309,147.6495644,,,-56.95433253,520,1.0000001
mp-765506,2,0.278309345,3.985790144,Li4Ni3O2F6,0.082559962,145.7457691,,1.8674889,-69.86235211,520,6.0000181
mp-765518,160,3.43455953,3.645152663,Li3Co3O1F7,0.039523685,157.8975781,,0.49162193,-71.13933514,520,9.000382
mp-765525,44,0.69192059,2.320418607,Li2V1O1F5,0.027066981,125.8167517,,-3.30584468,-48.8820842,520,0.0011758
mp-765526,123,-0.239362425,3.59680171,Li3Ni1O1F3,0.056384215,70.40991021,,3.04605661,-38.33462418,520,2.0002328
mp-765527,166,1.135681509,4.192950915,Li2Ni4O2F6,0.094511018,156.2916291,,1.97384676,-63.24255873,520,4.0000049
mp-765528,5,1.534844372,3.040942508,Li4V2O2F6,0.08301268,150.5140928,,1.30566941,-80.91828207,520,2.0000132
mp-765530,55,3.661890771,2.961052232,Li4V2F8,0.033485886,157.9386617,,1.83400352,-76.78923667,520,3.00046975
mp-765533,5,5.297962683,3.898037536,Na1V3O6,0.102229642,115.7896053,,2.94877521,-72.57696591,520,3.9999981
mp-765535,12,0.81754882,3.417328731,K2Li2Co2O4,0.002841724,133.1134348,,1.83597272,-49.69343149,520,3.00005225
mp-765536,129,0.768197414,5.28409202,Li2Ni4O4F2,0.053428806,110.1926353,,4.5320119,-57.59881413,520,4.00033825
mp-765545,148,3.811238263,3.22650196,Li2V2F6,0.04519479,118.2450369,,1.94621304,-57.42552481,520,3.00005685
mp-765550,1,0.406458813,3.0894752,Li4V2O6F2,0.08351692,141.7020131,,0.54534614,-86.62334182,520,3.49E-05
mp-765558,71,-1.144297506,3.138128449,Li6Ni1O1F6,0.09180684,121.8785868,,2.05583131,-66.57125168,520,2.0013307
mp-765682,8,7.394000111,3.722216912,Li3V3Cr1O8,0.102663141,157.7637863,,3.74410739,-105.1795419,520,7.999967
mp-765689,2,2.966120677,3.824779795,Li4Co3O2F6,0.078967612,152.1934982,,1.16471148,-77.08159482,520,8.9999127
mp-765690,31,4.70918767,4.658531849,Ni6O2F10,0.069604144,204.6540159,,0.96498127,-76.97685758,520,7.00094555
mp-765693,1,4.537119453,4.180873788,Mn6O5F7,0.056725471,215.5128162,,1.54039618,-119.9056232,520,25.0018049
mp-765718,160,4.873388868,4.130316728,Li2Co4O2F6,0.049217084,159.0473391,,1.22317569,-73.44272284,520,6.00089285
mp-765736,12,2.280051045,6.002463534,Na1Ni5O6,0.041433144,114.1022492,,4.92135156,-56.63139849,520,8.9993963
mp-765756,123,2.602694891,5.773644246,Mn1Ni1O2,0.123779055,41.88424103,,6.01914948,-25.124545,520,7.0004264
mp-765772,1,4.817630402,2.705198096,V3O1F11,0.049803649,231.9098812,,,-85.18591414,520,2.0000003
mp-765777,1,5.48833684,3.954640595,V3O5F1,0.072619292,105.7382511,,2.42551306,-67.62846951,520,4.0000029
mp-765781,15,1.715700446,3.035411343,Li2V2F10,0.068258626,167.261747,,-1.28969363,-75.46053286,520,1.0001213
mp-765784,10,1.995915231,4.28340447,Li2Cr1Co1O4,0.06793652,73.19517535,,2.87159644,-49.82221107,520,6.9995522
mp-765788,12,2.02679323,2.624583705,Li5V1O3F2,0.080708173,108.5952876,,2.17940515,-60.49105194,520,1.9999931
mp-765789,129,0.735482625,3.928308102,Li4Ni2O2F4,0.038638706,107.0064202,,3.06459005,-57.72716497,520,1.999485
mp-765791,6,4.5729063,3.422410301,Li2V3O4F4,0.072297742,148.8084364,,1.31972527,-85.12499778,520,5.0003162
mp-765792,160,0.753065577,3.795593472,Li3Ni3O1F7,0.038331826,151.3244805,,1.04150096,-64.03669938,520,5.9999711
mp-765798,10,1.962475144,4.63706161,Li2Co1Ni1O4,0.024742937,70.01107526,,3.26484961,-42.06543947,520,4.999947
mp-765804,225,2.020989723,2.742041782,Li6V1F8,0.05636365,148.1107555,,1.83373946,-76.5446975,520,2.9999978
mp-765806,148,-1.281506547,5.921828213,Zn2Co2O6,0.067965821,96.65189322,,,-51.84904069,520,0.98326225
mp-765808,164,1.502593158,4.240951096,Li2Ni4O2F6,0.100912748,154.52268,,1.82037833,-63.15293451,520,3.99998255
mp-765809,12,1.811909594,3.052647307,Li3Mn1P2O8,0.0600422,144.534051,,2.10440134,-93.92627597,520,3.9997036
mp-765817,43,0.237649436,3.706777571,Li2Ni2P2O8,0.072070244,143.8943302,,2.61773905,-86.81387541,520,2.00004405
mp-765828,74,7.482220741,4.061546608,Li2Mn2Fe2O8,0,148.5916155,,2.34043365,-92.34691236,520,8.00009395
mp-765835,160,6.323131663,4.098979458,Li1V5O7F1,0.056297792,159.0636265,,4.17628983,-105.0816183,520,11.0000049
mp-765836,65,1.520697154,3.203869553,Li3V1O2F2,0.079570828,73.47308843,,2.89126082,-46.47854703,520,2.0000009
mp-765838,64,8.24210914,4.317431359,Fe2Co4O12,0.112371365,207.4660961,,0.89108667,-104.2577883,520,6.0001025
mp-765842,40,0.764396284,3.405377648,Li2Mn2P2O8,0.081510756,152.9676008,,2.83899894,-99.41029065,520,4.99975255
mp-765845,11,2.837878957,3.194215377,Li2V2F6,0.079337099,119.4402375,,1.97052175,-57.08410172,520,2.99987605
mp-765846,9,3.751814102,2.747545587,Li2Mn2P2O8,0.085858004,189.591922,,1.05839129,-99.34942918,520,4.99996685
mp-765847,166,-0.255755794,5.003739996,Co3Sb1O8,0.087008294,141.5562907,,2.83353886,-69.47381121,520,4.0034574
mp-765848,166,5.254496768,4.835847545,Co3Te1O8,0.076583059,148.4762318,,1.94825139,-67.51507302,520,10.9953211
mp-765849,21,0.604376331,2.523415572,Li1Fe1Si2O6,0.010524567,141.4505468,,0.20790481,-71.98797714,520,4.9999724
mp-765851,194,5.039605809,2.179049466,Li2V2F6,0.092081728,175.0845262,,0.16379545,-56.95665543,520,3.00000325
mp-765855,12,3.925224222,2.968033649,Li4V2O2F6,0.06462792,154.2114265,,1.30410346,-81.17566871,520,2.00000065
mp-765860,74,12.44341166,5.304951878,Fe4Co2O8,0.244391317,146.8804991,,3.63474269,-88.19178501,520,12.99948235
mp-765864,166,0.438802249,4.248331689,Ti1Co3O8,0.096018865,137.8443833,,0.74151999,-77.1151451,520,3.0322438
mp-765865,166,4.670703885,4.287942308,Cr1Co3O8,0.077326153,138.1700478,,,-72.7326133,520,5.0000445
mp-765871,63,2.330376832,3.393263186,Li2Mn2P2O8,0.077174041,153.5137182,,2.57378852,-99.47100466,520,4.99988705
mp-765876,166,0.18953519,4.623458207,Mn1Co3O8,0.063541238,129.1999152,,1.05463567,-71.9613624,520,5.9973268
mp-765879,160,4.964164199,4.681143504,Li1Ni5O3F5,0.074470018,157.2863654,,2.591622,-63.51550076,520,10.0000293
mp-765885,64,1.753422825,4.36034701,Mn2Co4O12,0.026774459,204.7333754,,0.676402,-110.7342574,520,5.00338585
mp-765886,74,-1.099870703,5.426629971,Co2Sb2O8,0.092878885,149.749889,,3.66073633,-71.45824107,520,3.9923719
mp-765889,227,0.385790047,5.769612894,Ga4Co2O8,0,151.0281259,,2.97301449,-85.1696469,520,2.9988019
mp-765890,173,4.135793137,2.26636823,Li2Mn2P2O8,0.052183766,229.8445777,,-0.45212325,-99.82086851,520,5.0011614
mp-765891,123,2.734646587,5.906893309,Li1Ni5O5F1,0.062301975,112.2798244,,5.15500066,-57.51690128,520,9.9992314
mp-765892,10,1.749846721,4.342674997,Mn1Co1O4,0.027921442,68.01295354,,0.78386707,-38.32481171,520,3.9997302
mp-765894,65,1.527176762,2.658970722,Li5V1F8,0.046547393,148.4033184,,-0.43127404,-72.61675883,520,2.0000463
mp-765908,74,0.512392624,3.745564192,Li2Cr2Si2O8,0.053127104,133.9050274,,3.64372691,-102.0614998,520,2.99999845