material_id,spacegroup.number,delta_volume,density,full_formula,e_above_hull,structure.lattice.volume,band_gap.optimize_structure_gap,efermi,final_energy,encut,total_magnetization
mp-556565,140,18.90800138,2.809266554,K2Br2F8,0.383126092,230.5216109,,-1.67655229,-36.1529359,520,1.9996318
mp-556585,60,1.93272408,3.791191575,Mn4F8,0.003970499,162.8215783,,0.32607186,-77.07832765,520,5.00009265
mp-556588,1,8.772791092,2.988304608,Si4O8,0.304220791,133.5504092,,2.99978326,-91.33327471,520,0.000164575
mp-556597,227,39.42431287,4.514501492,In6S8,0.047598362,347.7504895,,5.96153155,-56.30319408,520,5.00E-08
mp-556605,29,6.294165592,5.778683829,Zr4O8,0.022630736,141.635207,,3.04771094,-113.7830601,520,1.50E-07
mp-556646,123,-0.479624474,3.524082579,Rb1Fe1F4,0.016190251,102.394247,,,-29.84713075,520,5.0000006
mp-556662,5,11.05539757,2.255870712,Si4O8,0.070744176,176.9114255,,-0.11099053,-94.13499409,520,6.10E-05
mp-556742,194,45.93402573,3.416664512,Ga4S4,0.001201437,197.8806491,,1.56482457,-33.8472851,520,2.20E-06
mp-556748,15,2.884573603,2.984880383,Ca2Cr2F10,0,208.1360382,,-1.31530813,-83.44942197,520,3.0000056
mp-556757,225,1.469477512,3.132198401,K2Na1Ni1F6,0.004761665,145.1926352,,-1.31328184,-41.46796947,520,0.9998119
mp-556777,193,12.78154939,2.430922783,Li4C2O6,0.066935055,100.9482695,,1.52408896,-77.8026123,520,0
mp-556786,33,15.98593881,4.196946951,Li4Cd4P4O16,0.000430354,339.1916209,,0.99639176,-169.51973,520,0.00027765
mp-556788,1,0.092026005,2.695904714,Si4O8,0.24184515,148.0353891,,1.65735985,-92.0817824,520,0
mp-556845,64,42.14198758,2.780630868,C4I4F12,0.164230542,467.9755769,,-1.32082305,-89.72323156,520,0.0002397
mp-556853,221,15.48138353,4.854024677,Mn2S2,0.471380792,59.52666599,,7.00654716,-27.15684166,520,1.66181005
mp-556859,11,33.06637171,9.877814052,Hg8O8,0.000506394,291.2831948,,0.45084648,-46.63371272,520,0.00013725
mp-556866,36,29.75750841,5.874189966,Ag4Hg2S2I4,0,397.0014879,,1.26145616,-29.12752186,520,3.20E-06
mp-556880,1,20.87996944,2.226657853,Si4O8,0.147094458,179.2324325,,0.0649042,-93.2187907,520,9.77E-05
mp-556891,221,0.240838371,3.490424263,K1Fe1F3,0.202635636,72.28342685,,1.04698006,-24.19988073,520,3.9998929
mp-556911,136,1.364217255,4.050506951,Fe2F4,0,76.9424593,,,-33.56286542,520,4.00000085
mp-556916,9,19.86315514,4.542900048,Ga2Ag2S4,0.002592604,176.7098044,,2.35374744,-32.30820401,520,8.09E-05
mp-556927,127,-0.631458625,3.682170404,Rb2Fe2F8,0.008609736,195.9962427,,-1.70796089,-59.78522768,520,4.99991275
mp-556953,71,35.10198604,2.291127657,Rb2P2S6,0,308.224914,,0.86275822,-44.36174542,520,0
mp-556978,62,38.72698184,1.990106619,Na8S4,0.039552155,260.4805228,,1.03213985,-39.41623626,520,1.83E-06
mp-556985,1,6.985174971,1.936201808,Si4O8,0.044643438,206.1196832,,-1.31286053,-94.44820294,520,0
mp-556994,1,8.222859452,2.273371462,Si4O8,0.085020182,175.5495352,,0.03996847,-93.96368202,520,0
mp-557001,2,15.16285718,2.832630203,Rb2S2O8F2,0.163665828,235.1072202,,-1.12171029,-71.99640205,520,9.59E-05
mp-557032,139,56.29528138,5.267206946,Ba5Hf4S13,0.009326911,572.9659198,,3.21991479,-143.9600762,520,0.000368
mp-557118,20,13.73573796,2.396088861,Si4O8,0.023604831,166.5586406,,0.47893767,-94.70066623,520,0
mp-557133,225,3.205364559,4.097864779,Cs2K1Mo1F6,0,208.6235977,,0.21120743,-49.14430681,520,3.0000873
mp-557134,5,8.377371098,2.241793554,Si4O8,0.086019844,178.0223262,,-0.18380943,-93.95168607,520,1.50E-06
mp-557136,12,13.51618911,4.055990297,Cu3Se2Cl2O6,0.0038239,211.031599,,1.97940033,-60.87690301,520,0.8429578
mp-557137,82,-0.639370923,3.590860651,K2Co2O4,0.040506774,120.2610751,,,-41.63316065,520,3.00000985
mp-557142,194,41.36369935,1.603666244,Li8S4,0.17537578,190.3059008,,0.99793694,-45.74607516,520,0.000465
mp-557158,148,3.873619299,3.868456087,Cr1Mo1F6,0,112.4322471,,-0.27462476,-47.13307616,520,5.9999829
mp-557244,24,12.15865489,2.594970606,Si4O8,0.177328154,153.7933811,,0.98728552,-92.85598635,520,5.00E-08
mp-557250,62,55.26995106,4.776762561,Hg4I4N4O12,0,541.604404,,-0.44484894,-108.168177,520,0.000417225
mp-557257,221,2.085277102,3.236477663,K1V1F3,0,75.43922717,,2.12594599,-28.03190823,520,3.0000074
mp-557266,61,16.53809413,8.049077604,Hg4O8,0.37714953,191.9339341,,1.35115847,-40.17854482,520,6.97E-05
mp-557296,139,1.616190617,5.711314487,Sr2Mn1Sb1O6,0.020001578,130.2349284,,4.33738504,-66.20653355,520,4.0000436
mp-557328,12,5.017246392,5.086608305,Li3Zn2Sb1O6,0.02200311,120.5909257,,2.73432455,-62.53719422,520,0
mp-557359,164,14.4713699,4.238991413,Cs2Al2Sb2O7,0,264.5310961,,1.44725889,-80.05152259,520,1.95E-05
mp-557376,15,135.5143236,1.659384133,S20,0.032115707,641.7463355,,0.52876246,-81.91525657,520,0
mp-557382,225,1.271191758,7.304840261,Ba2Zn1W1O6,0,140.9157651,,,-65.72692231,520,0
mp-557397,225,0.95732476,2.800681797,K2Mn1F6,0,146.5217567,,-3.4118853,-44.37214613,520,3.0000013
mp-557426,15,1.485128244,2.97082006,Ca2Mn2F10,0,212.4099049,,-1.00656522,-81.16441997,520,3.99998475
mp-557458,12,0.825622233,3.507833471,Na1Zr2Co1F11,0,224.0761444,,-1.15263109,-93.46775738,520,2.9995988
mp-557488,14,231.6421206,1.616746546,S36,0.01680844,1185.607379,,0.07373138,-147.9985234,520,0.000308439
mp-557515,161,3.109454974,8.186499246,Cr2Bi2O6,0.013018041,125.3440662,,5.59253648,-68.32919937,520,3.0000137
mp-557519,148,1.287935522,2.681304896,Ca1Cr1F6,0,127.6162884,,-2.79837233,-44.59102651,520,2.0000017
mp-557523,194,-17.66527142,1.899978611,V2S4,0.018777105,201.1398623,,0.08766068,-39.78571885,520,0.51026115
mp-557533,225,2.451983751,5.060119183,Cs2Tl1V1F6,0.018449124,208.424285,,1.66773038,-48.8887996,520,1.9999985
mp-557539,167,6.763236565,4.040371015,Mo2F6,0,125.7086961,,0.1312118,-46.10698858,520,2.9999885
mp-557559,14,212.731684,1.669022166,S28,0.041008024,893.2566572,,0.39667642,-114.4323743,520,4.02E-05
mp-557579,64,-25.63460269,3.787458125,La4S4,0.279188351,299.8350142,,3.47239592,-51.36024867,520,0.00052745
mp-557592,13,48.20883395,3.025844496,Cr2Ag2P4S12,0,454.6157611,,2.64286669,-103.0261639,520,3.0001994
mp-557597,12,35.24260014,1.587751909,K2Ca1N4O8,0.22780573,316.1547487,,-0.89735163,-89.84718069,520,0.0003323
mp-557604,148,17.80133612,1.885951142,Al6P6O24,0.009396822,644.2612897,,-1.60167415,-269.1638775,520,1.87E-05
mp-557618,2,10.54365193,3.533337996,Rb4Cu1Si2O7,0,269.563406,,,-82.19988589,520,1
mp-557632,5,7.137106916,2.410344581,K4Li2B2O6,0,198.3361906,,0.45501242,-80.05792194,520,0
mp-557653,6,15.58311725,2.858255619,Si4O8,0.299367755,139.6268761,,2.53988964,-91.39151114,520,0.00013505
mp-557658,2,15.71128692,3.163638545,Rb2Zn2B2P4O16,0,369.1295352,,,-176.5792801,520,0
mp-557664,225,-0.046748056,5.346571851,Cs2Tl1Bi1F6,0,246.3413048,,1.08679014,-43.93404034,520,0.0017039
mp-557685,62,18.07279845,5.059582819,Nb4I4O8,0.02091106,330.5725151,,2.61380449,-116.7612253,520,1.50E-06
mp-557686,225,4.399192771,2.976044426,Zr1V1F6,0,142.9269336,,0.03687746,-54.02304905,520,2.999998
mp-557719,64,-11.59143567,2.684548726,Pb4S4,0.059320591,591.9935363,,-1.07919416,-35.18599387,520,6.88E-05
mp-557733,149,-0.530525556,3.978931301,K1Ni1I1O6,0,133.8355684,,0.62735793,-40.92226896,520,3.09E-05
mp-557752,11,11.01262448,3.191294945,Cs2H2S2O8,0.008509169,239.3286232,,-0.692068,-78.24588007,520,7.73E-05
mp-557753,62,22.29173833,2.510006883,K12P4O16,0,561.7138618,,0.21042659,-184.4070187,520,2.00E-06
mp-557762,166,2.73957657,4.353183688,Ti3S3,0.132508992,91.47112738,,8.6170447,-44.10191252,520,7.38E-05
mp-557772,194,0.81438175,4.488869079,Cs2Ni2F6,0,183.921668,,-1.12887035,-42.57423804,520,1.9999745
mp-557835,129,5.656260511,7.953395489,Tl2F2,0.004204142,93.27690029,,1.22774139,-15.46899427,520,0
mp-557837,15,12.34508305,2.223304554,Si4O8,0.006172022,179.5027598,,,-94.90985993,520,0
mp-557861,139,8.209892799,6.019029171,Li2Ca1Ta2O7,0.026841229,145.6245015,,1.69525856,-97.56539967,520,0.0001031
mp-557869,4,386.691688,1.583355025,S48,0.001342646,1614.147684,,-0.17441513,-198.0737227,520,6.25E-08
mp-557912,225,1.35270353,3.769681386,Cs2Mn1F6,0,191.5020446,,,-44.10932283,520,3.0000005
mp-557920,15,21.89224947,3.617014646,Zn6P4O16,0,354.5741257,,0.10348945,-159.039373,520,0.00083085
mp-557938,225,3.482378708,4.077357563,Hf1V1F6,0,139.861539,,0.20675136,-56.22423308,520,3.0000091
mp-557958,225,1.693040196,4.218881976,Cs2K1Ni1F6,0.002968713,187.9791529,,,-40.68702366,520,1.0000008
mp-557959,12,6.95934525,2.820463824,Cr3O8,0.045093301,167.1943758,,-1.3257877,-75.08378926,520,1.999996
mp-557964,221,0.088140964,1.708360152,Li9S3N1,0.008493467,167.8372316,,1.66974518,-51.29652642,520,0
mp-558014,58,231.9430908,1.491013788,S24,0.015913001,857.0574156,,-0.51200504,-98.68717285,520,4.23E-05
mp-558050,139,0.814967817,3.748976876,Rb2Na1Mn1F6,0,160.7193045,,-0.76612726,-49.31541053,520,3.9999888
mp-558059,14,1.490307255,3.26992088,Li2Mn2F8,0,140.0296455,,-1.02711102,-65.54022024,520,3.99991745
mp-558078,225,-0.089287836,3.778509133,Rb2Na1Fe1F6,0,159.8617257,,-1.9878231,-47.69992095,520,4.999992
mp-558096,227,10.15796581,5.266285308,Zn4Si2O8,0.144031566,140.5681451,,3.2710321,-82.20418995,520,2.30E-06
mp-558110,166,-0.661435448,2.145113515,Ti1S2,0.002017227,86.69722585,,1.19105987,-19.98188315,520,3.70E-06
mp-558111,225,1.150953624,3.419809859,Rb2Mn1F6,0,165.0260015,,-3.42769363,-44.17714768,520,2.9999707
mp-558118,180,0.994642694,2.074922516,Be3F6,0.000515275,112.8624224,,-4.1815864,-51.87880878,520,0
mp-558132,65,2.968500415,2.82819589,Mg2V2O6,0.261984901,144.7230983,,1.90724659,-68.61587291,520,0.9831679
mp-558134,39,14.28046077,7.921891294,Tl4F4,0.004836926,187.2956976,,1.186678,-30.93292627,520,0
mp-558161,167,9.511513561,3.283892706,Na2Mo4P6O24,0.006690993,505.4431905,,2.05854192,-257.0801735,520,4.00102015
mp-558170,62,28.32773665,3.655107933,Rb12P4O16,0,638.5272563,,0.44457742,-181.4589036,520,0.0013713
mp-558172,131,5.172240366,8.543200448,Ca2Pt4O8,0.084065804,192.1319295,,2.97205301,-84.51327119,520,0.00387945
mp-558189,221,8.790163263,6.373933862,Ag3S1I1,0.104264157,125.7203323,,2.45322811,-14.3594431,520,0.0001628
mp-558332,55,29.91226976,3.838731245,K10Au2I4O4,0,586.8016193,,1.74817265,-68.35114539,520,0.00186355
mp-558349,176,30.37394146,4.574135327,Ba10P6Cl2O24,0,731.1398364,,1.20244539,-295.0977306,520,0.0003046
mp-558378,63,7.212205452,9.035558376,Pd6S2,0,129.1317822,,5.10150822,-41.05552177,520,1.11E-05
mp-558380,15,4.929186847,3.449075877,Cr4F10,0.001775859,191.5997622,,,-85.99252172,520,6.9999997
mp-558382,63,14.48654919,2.565863386,Li4S2O8,0.054886364,142.3047708,,1.26443497,-81.5538554,520,0
mp-558383,14,0.143582291,3.05117777,Na4Cr2F8,0.007612836,189.3581793,,,-72.82562444,520,3.9999997
mp-558418,148,2.056553696,2.559921589,Na1Cr1F6,0.033478064,122.582858,,-3.1735721,-37.88741951,520,0.9999737
mp-558430,12,8.157219577,3.516804102,Ba1B2F8,0,146.8156106,,-2.70062062,-65.84244111,520,0.000756
mp-558441,12,3.676885103,3.372181487,Na1Zr2V1F11,0,229.1547121,,,-97.6624778,520,2.9999994
mp-558552,2,6.607307604,14.95122838,Ta12S2,0.005286736,248.2834521,,,-154.26112,520,4.00E-07
mp-558585,198,45.47956822,7.902105571,Hg12P4Cl4O16,0.024062337,615.4497998,,0.78884556,-151.6499672,520,0.00138975
mp-558625,2,13.6995797,3.766355294,Sr2Zr2P4O16,0.014264033,325.1869273,,1.34683535,-188.6192662,520,0.00049405
mp-558632,156,9.281646727,2.566029141,K2Na2S2O8,0.014228916,204.6861872,,0.24781885,-78.41457172,520,0.00015545
mp-558636,11,4.461559512,3.520620565,Ca2Al4O8,0.018161488,149.0813273,,4.23342508,-101.1953127,520,0
mp-558658,194,6.241959477,4.151552519,Y4C2N4O4,0.001243906,199.8578146,,1.87208376,-127.6977516,520,0.00013525
mp-558674,225,-0.278298052,2.970188595,K2Na1Fe1F6,0,151.5197591,,-2.01308798,-47.99219642,520,5
mp-558694,221,0.414699331,5.074514618,Cs1Fe1F3,0.298725469,80.41562505,,3.63384222,-23.62937148,520,3.9999865
mp-558728,42,-9.619667716,4.128959232,Cs3Li2F5,0.044377945,204.1370673,,,-43.0668837,520,0
mp-558749,221,0.49192924,4.087535508,Rb1Mn1F3,0,80.19310341,,0.7307356,-27.89639765,520,4.9999833
mp-558761,148,1.557134738,3.828595719,Mn1Sn1F6,0,124.7545926,,-0.33975693,-43.46966511,520,5.0000178
mp-558762,166,5.411191591,3.510334948,K1Sn1S2,0.100618721,104.9863381,,4.08437081,-16.1870499,520,0.0025062
mp-558781,13,4.143502743,6.702910375,Sc2Ta2O8,0,143.6368838,,2.13827931,-114.3053121,520,0.000178
mp-558798,11,5.619867015,6.047762301,Bi2P2O8,0,166.9125676,,2.92253999,-81.61592991,520,0.0001791
mp-558836,229,3.079259916,2.435659662,Mo1F6,0.005166438,143.1224823,,-5.81427379,-34.43906442,520,8.70E-06
mp-558838,148,1.022618234,5.994357403,Ni1Pt1F6,0,101.8779463,,-0.28831821,-33.07630507,520,1.9998354
mp-558852,221,-1.791450028,3.139887483,Fe3F9,0.003922178,179.0276636,,-2.84799179,-63.2043673,520,5.000088167
mp-558864,148,0.974494543,5.183749155,Cr1Hg1F6,0,117.4274841,,-2.37009278,-35.03718459,520,1.9979364
mp-558895,225,2.350154858,3.96933156,Cs2K1V1F6,0,196.5543859,,0.33667197,-50.7098535,520,1.9999877
mp-558928,136,12.65369423,2.992892825,Kr2F4,0,135.1501993,,-3.54767318,-8.09347429,520,0.0001425
mp-559001,146,8.381595142,8.157519184,Cr1Fe1Bi2O6,0.01002207,126.5728378,,5.1746416,-65.33267489,520,8.0000326
mp-559043,4,10.72613338,3.339048226,K2La2Ge2S8,0,376.8645793,,2.57116241,-72.68019585,520,2.00E-07
mp-559044,186,-0.52226953,2.887901291,Cu2C2S2N2,0.159400167,139.872306,,2.39984593,-50.32764974,520,0.0003444
mp-559067,58,0.980939968,4.625841701,K2Na4Au2O4,0,225.464268,,0.83947357,-46.95094474,520,1.85E-06
mp-559068,2,13.72280594,3.53742957,Na2Pd1Se2O8,0,205.7535622,,0.4312101,-67.06216023,520,0.0016138
mp-559088,2,39.30182155,4.866891201,La8Si4I8O16,0.026486118,851.2071504,,3.61820894,-252.8157839,520,8.10E-05
mp-559091,182,17.51163817,2.043228025,Si4O8,0.004295306,195.3229393,,-0.65516478,-94.93238053,520,0
mp-559092,155,2.343311847,2.513414341,Sc1F3,0.002026248,67.35611189,,-3.66262067,-27.86529393,520,5.83E-05
mp-559117,12,3.326574517,3.066793951,K2Li2Mn2O4,0.006613051,144.0019015,,,-56.38985723,520,5
mp-559126,2,14.74462446,3.551459071,Na1Zr2Cu1F11,0,223.4804137,,,-90.42606309,520,0.9999996
mp-559146,121,0.238594769,5.132617471,La2Mo1O6,0.060298162,151.9758294,,,-71.13810118,520,0
mp-559150,1,0.282310192,2.749333068,Na9Zr1P4Cl1O16,0,430.9210185,,0.93908448,-195.1536964,520,0.0015704
mp-559161,148,2.005873341,3.940389405,Cr1Cd1F6,0,117.3208792,,-2.70957421,-38.0873093,520,1.9999962
mp-559175,191,3.127556657,6.124683361,W3O9,0.005505987,188.5696089,,-0.26240978,-90.06608179,520,0.000131867
mp-559200,227,20.70668875,4.6572903,Cd2In4S8,0,335.3723234,,3.26989757,-54.20459439,520,0.0002736
mp-559264,108,18.07029865,8.218740417,Bi4Pd2O8,0.086269537,237.7554842,,5.26214151,-78.48196583,520,2.67E-05
mp-559278,194,63.95374565,2.058958492,K8S4,0.087236133,355.7015687,,0.80565962,-37.04212889,520,1.78E-05
mp-559343,2,1.529915256,3.885220262,K2Cu8P6O24,0.009932727,494.2410505,,2.54996373,-248.5117565,520,3.5123215
mp-559373,5,9.577943002,5.735081362,Ge4Pb1O9,0.006253418,185.8140278,,1.77017394,-88.84328809,520,0.0003126
mp-559374,160,11.98401634,1.892822214,Ti1S3,0.55917703,126.3830133,,-0.28111295,-21.91927065,520,0.0069908
mp-559408,148,0.175768621,5.525267959,Ni1Pb1F6,0,114.1685647,,-1.00987367,-33.65611671,520,1.9999895
mp-559437,14,10.90086141,3.239904839,Zn2C4O8,0.059270231,157.2720166,,0.42732658,-96.17750578,520,1.05E-06
mp-559470,129,55.53589749,5.909104685,Ag2Pb2Br2O2,0.052320921,230.9772538,,,-31.88772563,520,3.10E-06
mp-559598,88,5.234268592,3.262259161,Li2Sc2F8,0.033672853,130.1964061,,-1.3467654,-74.72328996,520,5.20E-05
mp-559612,64,8.096516535,2.225665629,K4Li4O4,0.013481023,185.1449418,,0.19295404,-48.8160565,520,1.25E-07
mp-559633,225,1.812264057,5.83740929,Cu6Pb1O8,0,203.8110298,,3.64229649,-77.90729329,520,0.0006984
mp-559634,166,12.36854968,8.438352147,Ni3Bi2S2,0.052533634,129.5180174,,7.25073336,-35.0801615,520,0.0007876
mp-559694,160,7.208268938,4.968699603,Ga1Mo4S8,0.040130328,237.2829501,,,-89.46335067,520,1
mp-559695,225,-191.0129143,4.512770967,Cs2Rb1Bi1F6,0,248.099818,,-0.56351419,-44.6650005,520,0.0019611
mp-559752,33,20.26525892,3.963145422,Cs4Zn4P4O16,0.001711311,491.5414319,,0.2640321,-168.6314448,520,0.002104225
mp-559798,136,0.30151581,4.655346072,Ni2F4,0,68.97784183,,,-25.69105561,520,1.99999945
mp-559808,62,32.65932645,4.455222898,Cs12P4O16,0,736.0239859,,1.42970177,-179.610995,520,0.0008892
mp-559879,62,180.959351,1.972639887,P4S8N4Cl24O16,0.126667482,1299.130658,,-0.37311149,-247.7984174,520,0.004936825
mp-559931,167,4.399934378,3.2334627,V2F6,0,110.8614119,,-0.324463,-49.14062208,520,1.99997435
mp-559934,33,15.01414034,3.202333566,Li4Zn4P4O16,0.001164853,347.0514837,,0.14594742,-173.7579839,520,0.00076015
mp-559976,164,5.38125568,8.683936691,Ta2C1S2,0.009611006,83.7611637,,5.57932858,-45.8358272,520,5.94E-05
mp-560008,36,11.90928461,2.195509103,P2N2F4,0,125.5171235,,-0.92324121,-49.01966331,520,0
mp-560023,148,0.904265314,4.382424553,Ni1Sn1F6,0,110.4116698,,-0.98053264,-36.80408983,520,2.0000654
mp-560025,4,-100.7403436,6.456495928,Ag4S2,0.08302049,127.4635355,,2.37212437,-19.42702301,520,2.15E-05
mp-560030,26,9.641268984,2.946446954,Ca2F4,0.182611248,88.00176353,,-1.15107711,-34.05872439,520,6.90E-06
mp-560037,225,-245.8002957,4.440098711,Rb2Na1Bi1F6,0,193.3124366,,-0.7160917,-45.2695498,520,0.0005189
mp-560054,59,19.07832129,5.09408091,Lu2S2Br2,0.401192462,187.0674763,,0.70334548,-30.24051068,520,3.21E-05
mp-560091,167,29.23933008,3.572603513,Cs2Zr4P6O24,0,558.0063264,,,-285.2040127,520,0
mp-560151,181,30.3652968,2.318585518,Al3P3O12,0.012371208,262.0229673,,0.03711506,-134.5283998,520,0.0003864
mp-560185,146,11.33510523,7.766405634,Ti1Fe1Bi2O6,0.013016709,132.064158,,7.29165015,-69.13727395,520,3.9994594
mp-560236,12,-15.95891877,1.907424171,Mg2F4,0.111141073,108.4756955,,-3.78845073,-31.30742658,520,2.00E-07
mp-560237,12,3.882566534,3.724181889,Cr3Ag1O8,0,174.7189222,,0.06569897,-79.47700541,520,3.0008457
mp-560244,2,15.48759114,3.403754739,Cs2Zn2B2P4O16,0,389.3748736,,,-176.6105491,520,0
mp-560308,148,29.59692456,3.25813053,Ba1Zr4P6O24,0,546.3816773,,-0.05201981,-284.9238588,520,0.0009405
mp-560338,167,2.352833205,3.556010183,Cr2F6,0,101.7906672,,-1.28019919,-48.07371253,520,2.99999395
mp-560357,36,10.31956134,2.180209062,Mn2Cl2O6,0.440501772,210.8061544,,-2.9976912,-51.40704101,520,8.79E-05
mp-560368,2,30.59158188,3.710835242,Na6Cu9P8O32,0.004385863,657.632866,,2.82834274,-339.7839457,520,5.0012058
mp-560387,2,12.37274302,3.336397574,Cs2Al2P2O9,0,261.6511063,,0.46372426,-103.3403774,520,0.0003523
mp-560399,221,3.438536815,2.808172374,Na1Mg1F3,0.041669952,61.66914219,,-1.2298169,-24.56195494,520,3.98E-05
mp-560421,71,0.331320198,5.079251643,Sr2Ni1Te1O6,0.227438233,149.5783529,,2.60395914,-55.94546022,520,0.0002441
mp-560459,36,30.46548736,2.894429734,Rb6Al4P6O24,0,683.026852,,0.2843181,-272.8703974,520,0.0023697
mp-560460,57,9.961678343,3.170876867,Ag4C4N12O8,0.574590979,406.1650832,,-0.3731888,-182.8352506,520,7.50E-08
mp-560547,87,6.576839847,3.183999924,K2Cr2F6,0.004660487,154.465191,,,-55.40662013,520,3.9999998
mp-560558,67,22.88118425,5.565805172,Cs2Cd2Au2S4,0.000617332,302.1732043,,1.53280189,-33.89628421,520,8.01E-05
mp-560562,225,1.736161287,3.362946679,Rb2Cr1F6,0.017118476,166.3637238,,-2.24595253,-44.32184757,520,1.9999883
mp-560586,148,16.38342967,3.1798219,Rb2Ti4P6O24,0.000908153,486.8219983,,0.81153144,-277.1242924,520,0.0005922
mp-560588,186,9.107001115,3.995205494,Zn2S2,0.003032183,81.02681207,,1.93775736,-14.02357541,520,3.38E-05
mp-560602,61,33.52204163,1.633292916,O24,0.414822825,390.3911376,,-3.14150333,-108.4969223,520,0.000148692
mp-560607,59,51.1141039,5.397034528,Sb8O12,0.169317119,358.7728405,,5.0166221,-115.7659344,520,0.000801575
mp-560671,225,1.672161491,3.706077356,Rb2Na1V1F6,0,160.7890176,,0.77531027,-50.26908559,520,1.9999702
mp-560676,160,0.301706161,5.186973935,Cr1Ag1S2,0.104939125,71.70872353,,4.71193518,-22.1820777,520,0.0005375
mp-560710,225,3.94441449,5.077677103,Cs2Tl1Mo1F6,0,222.41932,,,-48.13509355,520,3.0000031
mp-560723,139,3.824792901,5.656226658,Sr2Co1Mo1O6,0.083436988,125.0960509,,,-65.94081506,520,1
mp-560767,15,5.250237283,2.952355984,K2Na2Ti2O6,0,177.6801792,,0.76719924,-79.73100489,520,2.53E-05