material_id,spacegroup.number,delta_volume,density,full_formula,e_above_hull,structure.lattice.volume,band_gap.optimize_structure_gap,efermi,final_energy,encut,total_magnetization
mp-560790,225,10.00243403,4.978772902,Cs2Na1Bi1F6,0,204.0403261,,-0.27438382,-45.03877532,520,0
mp-560791,63,7.235961016,4.259642561,Cs2Na2Ti2O6,0,196.287835,,1.45418508,-78.7523579,520,4.64E-05
mp-560806,186,17.43395697,4.183259606,Zn4In4S10,0.068775053,413.4449889,,4.04767113,-68.0607402,520,0.0012695
mp-560842,227,11.5196837,6.138795077,Cd4Si2O8,0.134508572,171.4451399,,2.44875774,-77.90105757,520,8.40E-06
mp-560851,62,35.68776221,3.796769487,Cs4I4O4F16,0,615.4521726,,-1.75747468,-110.5751167,520,0.0001157
mp-560865,2,8.476537173,3.44258336,Zr1Cu1F6,0.010155877,129.6372874,,-0.86697133,-46.65410175,520,1.0088711
mp-560874,166,8.885277783,6.161489809,Ba1Pb2C2O6F2,0.004212737,191.2773829,,2.05580688,-86.77146131,520,5.55E-05
mp-560882,26,22.25902925,3.818278654,Se4O8,0.010240277,193.020401,,0.44132099,-61.70740264,520,0
mp-560894,218,17.16616109,2.331739221,Li8Be6P6Cl2O24,0,534.3483472,,0.23945709,-306.911658,520,0.0002178
mp-560902,136,0.929425524,3.726395448,Mn2F4,0,82.82639407,,,-38.56298682,520,5.0000004
mp-560936,225,1.634634752,3.769106844,Rb2Na1Cr1F6,0,158.5648183,,-1.15070347,-50.70709867,520,3.0000005
mp-560956,225,1.927174476,4.039320129,Cs2K1Cr1F6,0,193.5822631,,-0.83821393,-50.32870743,520,2.9999993
mp-560959,225,3.270322991,5.490522896,K1Tl2Mo1F6,0,198.9418546,,,-47.57120683,520,3.0000006
mp-560963,225,2.797937797,3.901773607,Rb2Na1Mo1F6,0,171.8752472,,1.82333333,-49.4494584,520,2.9999998
mp-560976,221,-0.072623329,3.814743352,K1Ni1F3,0,67.37798131,,-0.53167465,-21.65310039,520,1.9999894
mp-561013,9,10.3981485,6.162143193,Ga4Pb2O8,7.51E-07,221.3157689,,1.59493441,-82.58232886,520,6.00E-07
mp-561038,167,2.57243668,3.813938062,Co2F6,0,100.9474399,,-1.24280379,-36.35873926,520,3.9999679
mp-561070,1,12.66282166,3.90351043,Fe1Bi1O3,0.429889204,133.0740137,,,-29.05375968,520,4.9999997
mp-561078,225,6.070694258,3.436705019,Rb2Co1F6,0,166.1450856,,-2.61718596,-38.49453986,520,5.0016223
mp-561125,176,33.95542547,4.689168958,Ba10P6Br2O24,0,744.6858552,,1.20954956,-293.4436748,520,0.0005914
mp-561183,148,1.781970236,2.804552432,K1Cr1F6,0,121.4280557,,-3.04765687,-38.38339099,520,0.9998832
mp-561185,2,45.76646574,4.711528559,Cs2Sn2Hg3S8,0,479.8567145,,1.20230117,-51.57726565,520,0.0005491
mp-561203,15,-1.792551378,1.65384719,F4,0,76.30110064,,-5.89659688,-7.52786649,520,0.00028005
mp-561224,19,20.39363571,5.615451204,Te4O8,0.012651558,188.7791584,,4.16304628,-64.39566101,520,5.09E-05
mp-561294,139,7.226165965,4.470803264,Sr1Li2Nb2O7,0.016112368,148.311329,,1.4362083,-91.64736269,520,0.00043
mp-561320,5,12.23522917,1.965545617,Pb2S2,0.059579948,404.2733682,,-2.01289297,-17.59195951,520,4.82E-05
mp-561326,2,3.791191903,5.584966141,Lu2Se2O6F2,0.001397553,190.8359544,,0.2905624,-78.78785814,520,9.43E-05
mp-561348,221,0,3.720790261,K1Co1F3,0.147393171,69.18634946,,0.28336594,-23.11137342,520,2.9999458
mp-561353,12,1.057244174,3.363826253,Na1Zr2Mn1F11,0,231.6967758,,-1.24508147,-97.69897424,520,4.9999498
mp-561367,12,-0.225541516,1.971816951,F4,0,63.99699564,,-5.09953365,-7.49064344,520,5.70E-05
mp-561388,221,3.801371072,8.473781648,Fe1Bi1O3,0.245057998,61.30153242,,,-29.97791571,520,5.0000006
mp-561397,14,27.52151177,2.144526191,S4O12,0.004096724,247.976583,,-1.94141008,-92.7657741,520,6.48E-05
mp-561400,2,15.9321033,3.601922541,Na1Zr2Ag1F11,0,240.7826031,,,-87.91608158,520,1
mp-561412,5,22.59343304,2.601889601,Ca3C3O9,0.007379335,191.6278901,,1.04643129,-112.218405,520,0
mp-561428,167,3.334785546,4.139246947,Ni2F6,0.025844897,92.82145046,,,-29.17443761,520,2.00000005
mp-561430,15,14.11966009,6.11136345,Li2Lu2F8,0,140.1506227,,,-73.39317941,520,0
mp-561443,164,5.611234405,3.514500944,Ba3P2S8,0.010721778,345.1239053,,2.73502106,-65.8694902,520,0.0003506
mp-561458,167,17.45617204,2.925997431,Na8Sc4P6O24,0.075666776,529.8122864,,5.80401114,-292.4838305,520,0.9928164
mp-561468,157,2.69447163,3.903115755,Cu4Si2S6,0.13468904,213.8875073,,5.93313473,-55.81795612,520,0.000309
mp-561475,35,1.788642692,3.469626,V2Mo1O8,0.039018981,155.9343402,,,-79.8824915,520,0
mp-561486,2,10.75523037,2.89888087,Na2Mg5P4O16,0.003273994,313.5563287,,2.04731921,-180.4590184,520,8.40E-06
mp-561490,15,20.04034417,4.25322582,Pd2Se2O8,0.009439703,194.7233737,,0.42475234,-62.54130345,520,5.30E-06
mp-561495,2,11.53364102,4.230514344,Cs4Si2Cu1O7,0,299.6200493,,,-81.64398477,520,0.9999999
mp-561501,148,0.250581254,4.211741068,Co1Sn1F6,0,114.9807156,,,-39.22880565,520,2.9999997
mp-561513,2,212.3838233,1.583986745,S28,0.020188803,941.210629,,-0.09106881,-115.0153125,520,2.15E-05
mp-561536,15,3.886568053,2.839585948,Na2Mg2B2O6,0.005614008,124.0954044,,2.73204335,-77.80619044,520,0
mp-561558,139,1.48327338,7.250363228,Ba2Cu1W1O6,0.043750069,141.5478836,,,-66.41982675,520,0.7335996
mp-561586,166,2.979938489,4.234694486,Cs1La1S2,0,131.7315848,,2.73412674,-21.59023961,520,5.00E-07
mp-561591,15,9.029474578,6.5182402,Zn2W2O8,0.042300885,159.6008102,,,-77.80842768,520,0
mp-561597,12,8.359938067,5.246822272,Ba2Mn2As2O1,0,174.1845427,,3.73855763,-41.02704437,520,9.9977105
mp-561598,221,22.23306461,6.39922562,Ba1Pb1O3,1.094224603,101.8566085,,1.98206145,-23.48011115,520,0.3601424
mp-561599,12,16.87998809,6.21303066,Ba3Nb2Co1O9,0.005009597,214.0065735,,,-114.8801179,520,2.9999999
mp-561619,166,3.383391163,5.480296336,Cs1Lu1S2,0.000844436,112.7173708,,2.33323356,-20.89002017,520,3.16E-05
mp-561672,12,13.93505618,5.653770669,Cs4Ir1O4,0,231.3912588,,3.19293112,-42.50543297,520,2.9999482
mp-561682,176,21.61637671,4.898347224,Cs2Mo6S6,0,350.4719252,,,-103.1425808,520,0.00072415
mp-561684,139,5.097160839,6.855784158,La4Co2O8,0.083562869,194.1272597,,,-107.1374682,520,2.9988299
mp-561689,216,0.625611624,3.153780543,Cs1Li1Mo1O4,0,157.8432979,,-1.48058664,-43.32620608,520,4.30E-06
mp-561691,148,2.35792535,2.75937201,K1V1S2O8,0,169.8016783,,0.73382589,-76.99256581,520,1.9997276
mp-561708,146,7.374201835,2.069725098,Co1Sn1C4Cl3O4,0.253817079,317.7447048,,-1.95471033,-80.32163568,520,0.0002093
mp-561710,2,21.86349097,3.500195634,Cs2Sn2S6,0,330.0117447,,1.86655087,-41.63934416,520,0.00012045
mp-561716,139,1.417840257,6.779248194,La3Ni2O6,0.202765685,154.3393857,,,-77.18683064,520,1.0004691
mp-561738,225,2.164684642,6.370804981,Ba2Ni1Mo1O6,0,136.9142926,,,-64.5345138,520,2.0000004
mp-561779,12,7.224707306,3.238996148,Cr6O16,0.120930658,291.1801478,,-0.50665486,-148.4991567,520,1.00001755
mp-561800,166,0.899147278,4.027260267,K1Cr1O2,0,50.75437161,,2.7026074,-25.68703552,520,3.0000057
mp-561825,139,15.04698439,6.457008617,Sr2Mn3Bi2O2,0.180463963,203.1666251,,4.44077049,-52.81672441,520,14.4998041
mp-561827,139,37.69542504,4.581289778,Cs3Tl1F6,0,259.9172116,,-1.47022539,-40.1879408,520,7.08E-05
mp-561834,5,-15.06276505,3.952546793,Cs4C1O4,0.210083927,255.2768047,,1.82794953,-43.91930831,520,1.54E-05
mp-561848,62,90.12414474,1.283238251,C24O16,0.510198475,704.2680671,,-2.50522994,-311.5340207,520,0
mp-561891,65,-12.38706002,4.667508793,Ag2C2N2O2,2.844465999,106.6478522,,1.5119707,-31.07995805,520,0.0001313
mp-561909,12,1.546792298,3.967289508,V2Cd1O6,0,129.8743946,,,-60.8904656,520,0
mp-561913,139,4.200777417,4.383856363,Sr2Fe2S2O1F2,0,153.4292158,,,-51.61095132,520,8.000006
mp-561920,140,8.801911607,5.255196467,Cs2Ag2F6,0,188.1782432,,-0.26632225,-37.46464101,520,2.86E-05
mp-561922,2,5.520553627,6.79235736,La2Co2O6,0.021725816,120.2003046,,,-71.93535471,520,3.00000005
mp-561926,149,-1.213999815,4.410117062,Na1Ni1I1O6,0,114.6848669,,1.60974675,-40.87584415,520,2.76E-05
mp-561942,121,14.95248957,4.866750459,Cs3Ta1O8,0.00638557,241.4539496,,1.03100256,-71.3119806,520,0.0002512
mp-561947,221,6.745186811,6.345339001,Cs1Hg1F3,0,102.1891798,,-0.81811185,-16.80451714,520,3.48E-05
mp-561972,2,6.958169297,3.613398214,Sr4Mn8P8O32,0,712.1908389,,2.1788684,-392.8118252,520,10.00114788
mp-562263,2,-5.745406974,5.437706307,Cs8Pb4O8,0,616.8691587,,2.07049667,-85.81939173,520,0.000196025
mp-562283,35,8.400098755,8.022874788,Ge1Pb3O5,0.096494559,160.2481403,,4.19177921,-51.77652926,520,1.00E-07
mp-562468,167,12.81018345,2.851522738,Ti2F6,0.002948644,122.1296892,,,-53.82698173,520,1.00000015
mp-562473,167,19.73915891,3.63884469,Li2Sn4P6O24,0.005317998,483.055485,,1.82250816,-245.3969976,520,0.00036435
mp-562490,15,-10.05395692,1.796065317,Si4O8,0.009729637,222.2019987,,-1.36598084,-94.86716856,520,0
mp-562607,181,30.77746029,2.215976112,Al3P3O12,2.718120134,274.1557791,,2.80069438,-92.50063916,520,0.001338767
mp-562610,62,18.51149849,7.227010095,Sn4O8,0.286392153,138.5125206,,6.97595672,-71.96504501,520,7.50E-08
mp-562631,164,23.68563729,2.358901788,K4S2O8,1.816497289,245.3380689,,0.88636285,-53.22845397,520,0.06263405
mp-562815,146,43.15034541,4.125384543,Cs4C1O4,0.249905535,244.5816881,,,-43.56091384,520,0
mp-563025,107,19.85530876,3.825567319,Na6Pb1O5,0.034064443,184.5358422,,1.20766529,-51.3772745,520,0.0002161
mp-565329,67,1.453092897,2.83944236,K4Na2Fe2O6,0,239.8073713,,0.94007336,-68.48992368,520,5.00000735
mp-565340,176,6.756864856,3.114342916,Cr4B2P6O24,0,426.2511717,,1.27282654,-273.7995162,520,5.9997467
mp-565394,164,1.789842262,6.332292049,Tl4Mo2O8,0.008951819,298.2665736,,1.05592548,-81.95921714,520,0.000166
mp-565425,63,1.798191044,4.088995055,Na2V2Cd2O8,0.048861079,203.3258151,,-0.08990075,-82.46268737,520,0.00074035
mp-565430,147,14.76429691,3.252345428,Cs1Fe1S2O8,0,194.4623975,,0.29497914,-73.42663005,520,5.0002862
mp-565449,123,8.804833573,5.746438794,Ba2Y1Fe3O8,0.013070933,190.4561761,,,-97.86251595,520,14.9398742
mp-565455,2,0.864586368,4.197205705,Sr2Zn2Ni2P4O16,0.016510066,317.8212679,,2.1004679,-169.6080749,520,2.00000725
mp-565466,12,2.753173768,2.830552473,Na1V1S2O8,0,156.0815983,,1.42539311,-76.69005469,520,1.9997047
mp-565574,12,1.872266679,2.551732707,K4V2O7,0,240.9543562,,-0.83215652,-79.93031331,520,0.0003658
mp-565648,2,2.066051883,3.335171063,K1Mn1Se2O8,0,189.1730175,,-0.16980526,-67.76571915,520,4.0016344
mp-565689,15,0.529486373,4.341340382,Ni2B4O8,0.005899537,110.3978723,,4.14957285,-99.87094815,520,2.0000012
mp-565699,148,1.340846379,3.762927585,Na2Ni2As2O8,0,194.6988552,,1.03708223,-76.59451402,520,2.0006566
mp-565766,11,2.160737908,5.861185268,Cu2W2O6F4,0.015238521,188.9011014,,,-84.99174564,520,0.99999995
mp-565771,2,1.161790807,5.26108984,Cu2Mo2O8,0.037469295,141.0746647,,3.13563341,-76.27881667,520,0.05159765
mp-565782,12,5.833947885,4.06971588,Tl1Cr3O8,0,199.2650497,,-0.33008353,-80.63665128,520,3.0006727
mp-565794,63,3.116790836,3.938025548,Mn2Se2O8,0.001875294,166.8924898,,1.52321321,-74.28783549,520,4.99973885
mp-565797,147,2.993121417,3.230700065,Cs1V1S2O8,0,193.2449387,,0.63248365,-76.87293626,520,1.9995122
mp-565880,187,31.25085208,3.062812584,Ba1Sr1Fe4O8,0.479756817,312.4597038,,0.78456105,-85.29367709,520,19.9997449
mp-565894,161,3.024731559,3.036803418,Ca18Cr2P14O56,0,1178.362008,,1.90368544,-657.7744262,520,2.99987005
mp-566012,12,15.71133172,2.802503435,K1Cr2Fe1O8,0,193.7129439,,-0.90070371,-78.33317293,520,5.0000714
mp-566061,2,2.108283836,6.459068628,Li2Cu1W2O8,0.022072455,147.3370686,,2.21137052,-85.84066616,520,0.9997189
mp-566111,9,1.461503891,3.101195364,V2P2O10,0.002464929,173.3922572,,0.67423936,-103.1411743,520,0.0005579
mp-566131,123,3.230980221,3.189647946,K1Cr1F3,0.026989624,77.09583701,,2.41160587,-27.59166438,520,3.999987
mp-566179,85,1.729254099,3.01952719,V2P2O10,0.016440359,178.0819414,,0.75810277,-102.9455183,520,0.00010205
mp-566276,194,15.77693521,6.332374901,Ba4Mn4Bi4O2,0.05700901,429.2655131,,3.70285326,-76.31784586,520,9.9941346
mp-566323,9,0.463946824,3.037414989,Rb2Li2Mo2O8,0,275.9129393,,-1.73785096,-86.7588899,520,0.001507
mp-566408,216,-41.85471841,4.972780658,Ba1Y1Fe4O7,0.181559329,187.5355365,,4.70256849,-89.64162124,520,17.010528
mp-566412,12,0.381130743,3.569793194,Na1Fe1Se2O8,0,169.66853,,0.14928257,-65.63395584,520,4.9981845
mp-566456,2,6.615804988,2.831737046,K4Mn4P4O16,0,443.3387299,,,-196.9009055,520,5.000000175
mp-566521,12,2.520890262,4.012253718,Rb6Fe2O6,0.002048487,298.1882928,,1.01992114,-65.99313008,520,4.99988915
mp-566608,72,1.33264163,3.880932686,Sr2Cr2F8,0.127013629,184.5063414,,0.98247505,-71.19010131,520,4.0000015
mp-566617,2,6.447606278,3.143562457,Ca6Cr6P8O32,0,693.157871,,2.64246591,-388.6374825,520,12.0000433
mp-566698,12,6.232129373,3.159278776,K2Cr2F6,0,155.6738709,,1.47407516,-55.453225,520,3.99999915
mp-566755,58,0.268313441,4.674766637,Ni2F4,0.000845585,68.69128449,,,-25.6859821,520,1.99999955
mp-566801,10,6.405508123,1.839797436,V4O8,0.501031652,299.4364564,,-1.48571995,-87.28390778,520,0.999997975
mp-566811,12,3.658766971,3.195136004,Li1Cr3O8,0.002078532,151.1959082,,-1.66005463,-81.70002018,520,3.0000028
mp-566823,148,1.8708953,3.667552956,K2Ni2As2O8,0,214.3487472,,0.8810114,-76.75857692,520,2.0008461
mp-566900,2,2.933951392,6.685389,Li2Ni1W2O8,0.00158516,141.1439642,,1.81046541,-85.78989149,520,2.0000341
mp-566907,15,0.183514124,7.599536652,Hg4Mo2O8,0.007199703,245.2143396,,0.54795295,-69.43882187,520,0.0002319
mp-566919,63,1.657784829,2.863192064,Na2Ca2V2O8,0.074842726,206.4739977,,0.28093061,-93.25739101,520,0.000184
mp-566993,74,9.490063948,3.2655276,Na2V6P6O24,0,468.5658886,,,-283.1046751,520,7.00000005
mp-567057,2,1.115017357,5.104009576,Lu2Mo2Cl2O8,0.00681755,240.9843651,,0.43983764,-98.50016631,520,0.0002513
mp-567076,216,5.540781881,8.81781355,Li2Bi1Au1,0.021663913,79.06068656,,4.53807066,-12.73572613,520,2.90E-06
mp-567084,146,1.693658698,2.613250442,K1Ni1P3O9,0,212.6834094,,-0.28519083,-93.938882,520,1.9995455
mp-567089,221,-0.875171809,12.51302966,Yb1Rh1,0,36.61929111,,3.59396223,-10.10381487,520,4.56E-05
mp-567097,225,-0.061773132,6.719386108,Li1Cu2Ge1,0,51.07439571,,5.31097694,-15.45117558,520,1.24E-05
mp-567114,11,13.7710484,9.073619412,Sr2Bi4Pd4,0,262.952573,,4.95572945,-45.63746396,520,2.25E-06
mp-567116,221,-1.602198381,12.52847816,Yb1Ru1,0.292144621,36.33085762,,3.89114512,-10.39350473,520,0.0009466
mp-567164,194,0.750557822,9.11674339,B2Rh2,0,41.42503077,,7.81674429,-29.5860269,520,2.15E-06
mp-567178,156,43.16847463,5.47191178,Pb3I6,0.002497385,419.7015815,,1.52879523,-26.28085427,520,7.56E-05
mp-567197,186,6.434728454,9.354828186,Y2Sn2Au2,0,143.6316923,,6.41186428,-32.48341112,520,3.75E-06
mp-567200,225,-8.853213403,9.196631521,Li2In1Ir1,0.097766013,57.94460786,,5.77488284,-16.14184546,520,6.28E-05
mp-567207,12,1.752383633,6.201982177,Sr2In8,0.001057162,292.8533139,,6.08638393,-28.1000375,520,6.85E-06
mp-567219,12,3.229264061,2.797590649,Li4Ca3Si2N6,0,171.0695696,,4.14372273,-89.30262458,520,8.91E-05
mp-567220,194,-0.013171531,10.20498958,Hf4Sb2P2,0,165.879562,,7.19894415,-66.77126183,520,5.01E-05
mp-567244,189,8.481367093,5.816641053,Mg6Tl3,0.011920704,216.6741497,,5.05131527,-16.90843554,520,0.0004104
mp-567259,164,13.04639484,5.09055618,Cd1I2,0.001726494,119.4609167,,1.05249102,-5.72408435,520,5.90E-06
mp-567262,194,-1.013942281,4.15900194,Ni2C2N4,0.162682154,78.82865411,,5.15466971,-60.68602776,520,5.99E-05
mp-567276,227,-18.31755659,10.38566388,Ta2V4,0,90.44231039,,5.40223873,-60.69876866,520,2.50E-07
mp-567290,186,3.806747324,5.760192282,La2N2,0,88.16255276,,6.38497526,-31.82601386,520,1.19E-05
mp-567296,164,41.05446933,5.06458987,Cd3I6,0.001371875,360.2201895,,1.02054224,-17.17544462,520,1.63E-06
mp-567299,12,9.517643905,2.25879706,K1C2I1N2,0.467170247,160.288812,,-1.34217244,-37.22495642,520,0.0001094
mp-567313,154,3.376540349,6.061279552,Te3,0.001868297,104.8713129,,5.59885535,-9.4216405,520,0
mp-567318,11,2.195136569,6.796826379,Tl4Sb4Se8,0,473.0478389,,4.0375837,-59.22172698,520,0.0007387
mp-567330,163,23.25083374,2.521871565,Ti4Cl12,0.027262174,406.2035475,,2.46227337,-79.07148513,520,0.9995497
mp-567337,220,19.65898672,0.571015672,Li8,0.016413355,161.4779004,,-0.21048554,-15.13247436,520,4.88E-05
mp-567344,161,1.701487326,3.052860186,Li2Ca18Mn2P14O56,0,1182.915556,,6.90914207,-665.6117245,520,5.00003715
mp-567347,216,1.412718637,5.566623331,Li2Ag1Sn1,0,71.72993859,,4.0579364,-12.14001401,520,0.0004315
mp-567353,194,-11.69509954,6.763526537,Mn2Si2Ni2,0.239870208,69.58692881,,8.88858148,-42.23521654,520,2.1477654
mp-567354,162,16.2227861,2.471772553,Ti2Cl6,0.027545884,207.218333,,2.50221984,-39.53347289,520,0.00199565
mp-567362,225,1.156629551,8.115756854,Bi1Te1,0.324447729,68.86663861,,5.88931186,-7.16366044,520,0.0009743
mp-567365,194,34.06889668,2.234419335,Kr2,0.00129901,124.5512409,,-6.06773625,-0.10967812,520,0
mp-567366,186,-0.389428217,3.602241367,Cs2Cu2Cl6,0.029337474,279.1753944,,1.01423748,-31.92612282,520,1
mp-567371,12,5.29686239,4.328747439,Sr3Li4Ge2N6,0,199.4543814,,2.86093747,-80.6205318,520,1.44E-05
mp-567379,11,22.28507924,9.911368373,Bi4,0.062955898,140.0493251,,5.27785427,-15.34115615,520,1.18E-06
mp-567389,225,0.923152308,4.28705719,Li2Zn1Ge1,0.099928922,58.84861006,,2.25083374,-10.64768718,520,1.59E-05
mp-567394,160,11.06489376,6.593879133,Ga1Mo4Se8,0.055140876,273.2770028,,4.75472963,-81.95898039,520,1.0001188
mp-567397,162,0.344755653,16.53649656,W6C3,0.090015124,114.3817667,,8.00456781,-105.4304714,520,5.17E-06
mp-567409,11,32.83740111,6.348216647,Sb4,0.114851628,127.3978156,,6.44164729,-16.05163859,520,6.25E-07
mp-567456,166,0.098797681,4.19686418,Ca1Ge2,0,73.33908895,,3.36640851,-12.71338541,520,0.0002171
mp-567465,225,-5.56674464,11.27715875,Tl1C1,2.108209068,31.86358311,,7.15541624,-7.3762632,520,0.0004896
mp-567480,216,-2.129377296,10.06586261,Mn1Sb1Pt1,0.370886233,61.33191205,,6.01441811,-19.33909168,520,3.93E-05
mp-567484,58,29.41332037,5.126924528,Pt2Cl4,0.044723483,172.3008704,,0.79107443,-21.45709141,520,0.0002326
mp-567503,186,47.16065904,5.13459208,Pb2I4,0.000783249,298.1827303,,1.02324512,-17.53085433,520,0.00015575
mp-567510,164,6.3364733,5.642838512,Ba1Sn2,0,110.2781911,,4.9787925,-11.68490308,520,1.20E-06
mp-567515,12,58.12837995,4.713452163,Rb2Hg2Pd1Br8,0,464.2466858,,-0.42933123,-32.02590824,520,0.000646
mp-567525,12,4.952879373,9.349467576,Te2Au1,0.01254389,80.30834208,,,-9.77135715,520,3.00E-07
mp-567540,63,12.43417862,6.012916825,Ga20,0.026610906,385.0968402,,3.24556647,-60.21245069,520,3.50E-08
mp-567545,187,18.73023396,9.37599071,K1In6Au4,0.00216251,268.4692925,,5.87229929,-33.63007187,520,0.0024738
mp-567590,194,-9.645813109,17.32226549,Lu4Os8,0,212.9763495,,6.0673672,-112.6698312,520,1.67E-05
mp-567597,221,-0.320104495,9.853031579,Bi2,0.060816135,70.4392572,,5.20413526,-7.6748576,520,2.50E-07
mp-567612,194,5.086844299,13.97757366,Sc4Os8,0,202.1580418,,6.64102849,-119.7785481,520,1.53E-05
mp-567617,14,9.434442579,7.647567615,Rh4N8,0.108932526,113.7072363,,6.82819522,-91.74060563,520,3.38E-06
mp-567626,63,-12.31119647,4.851072018,Mg2Zn4,0.138842018,106.1982987,,3.19988708,-8.20797522,520,9.35E-06
mp-567629,62,50.416255,4.54651786,Cs4Pb4Br12,0,847.0742178,,0.52981164,-64.40690822,520,0.0006517
mp-567644,63,11.59000493,4.276752452,Rb2Cu4Br6,0,351.2080669,,1.36211103,-37.54001177,520,0.0012252
mp-567650,162,-3.527070076,2.63431683,Mn2Fe1C6N6,0.183878753,202.8623832,,1.06986873,-129.6449321,520,9.9998849
mp-567653,148,-83.20302798,6.838954342,Ti6Ni8,0.00839472,183.7432343,,7.30711795,-99.40449897,520,8.15E-05
mp-567657,139,-0.880119744,4.951508204,K1Cu2Se2,0,108.6937119,,3.10021495,-18.94647688,520,5.83E-05
mp-567666,194,21.62126553,5.911871667,Ba6Bi2N2,0,356.7023706,,2.9743669,-43.76573899,520,0.00022655
mp-567677,187,29.61439562,4.220595812,Ge1I2,0.11797358,128.4371292,,1.12125278,-8.33880519,520,2.39E-05
mp-567679,216,-5.408255041,7.093491448,Ti1Ga1Rh1,0.551664033,51.61652602,,4.57274424,-18.78729154,520,0.0006438
mp-567687,36,-150.144988,4.361269447,Cr2I4,0.090944901,232.8685323,,3.85990642,-27.10926602,520,3.9879129
mp-567698,194,100.0416833,4.421791612,Cs2Ti2I6,0.010662339,421.7155741,,3.83880664,-37.08153689,520,2.00337835
mp-567703,221,-0.684702033,7.421039974,Fe3Ni1N1,0.026324386,53.75523697,,6.09436231,-39.76865717,520,8.0277534