material_id,spacegroup.number,delta_volume,density,full_formula,e_above_hull,structure.lattice.volume,band_gap.optimize_structure_gap,efermi,final_energy,encut,total_magnetization
mp-9813,160,9.565801698,6.557007694,W1S2,0.000151718,62.7975267,,4.2787516,-23.67919361,520,0
mp-9816,217,8.098458548,2.723977225,Ge1F4,0,90.60718808,,-5.44128054,-23.85258223,520,2.93E-05
mp-9819,148,10.2895135,3.41489396,Rb1As1F6,0,133.4209516,,-3.40718453,-36.36602609,520,0.0008533
mp-9820,148,10.00504514,3.595811457,Cs1As1F6,0,148.6147093,,-3.37774037,-36.39370313,520,1.80E-05
mp-9821,148,9.527273331,3.729353417,Rb1Sb1F6,0,143.026239,,-3.02309676,-37.06603422,520,4.80E-06
mp-9828,187,4.581202082,11.24180347,Yb1P1Pt1,0,58.95116531,,4.8428988,-16.64518336,520,0.000502
mp-9831,221,38.64760698,4.378282803,La1Ga1O3,1.446203152,97.33007744,,1.27196868,-29.16279492,520,2.0108508
mp-9835,58,2.601712096,8.180590656,Co2Sb4,0.011929165,122.7870601,,8.21287129,-31.71236638,520,0
mp-9839,225,-312.1340771,2.956904429,K2Li1Al1F6,0,126.9786552,,-1.67278373,-51.53773588,520,0
mp-9844,155,7.865382523,2.93427784,Ba1Al2B2O7,0,183.8688236,,0.10124022,-91.61354627,520,9.01E-05
mp-9845,129,5.052770089,3.099822233,Rb2Ca2As2,0,214.7761509,,1.08161411,-20.3551009,520,1.50E-05
mp-9846,129,7.285556689,3.273907666,Rb2Ca2Sb2,0,250.8689783,,1.48862207,-19.02808976,520,1.40E-05
mp-9854,11,5.060502988,3.297737372,Y2P10,0.001414189,245.500047,,5.47578576,-73.52258925,520,0
mp-9856,63,24.33555215,4.213509409,Cs4Zr2Se6,0,468.1223125,,1.10954834,-58.20789054,520,6.99E-05
mp-9872,166,2.317086962,1.649608751,K4Be1P2,0,228.8593438,,0.8209072,-21.61267701,520,2.69E-05
mp-9881,63,19.43030513,5.363414467,K2Au2Se2,0,195.0664439,,0.75346789,-20.22261885,520,1.43E-05
mp-9889,166,11.75832671,3.392025747,Ga2S2,0.005135773,99.65900051,,1.53379915,-16.90790521,520,2.79E-05
mp-9890,167,4.0421641,8.945672745,Ta2Ag2O6,0.020526138,125.0421913,,2.44996202,-79.04180804,520,1.00E-07
mp-9897,166,5.509271944,6.045190841,Te3As2,0.011358112,146.310489,,5.81774195,-18.76191563,520,2.00E-07
mp-9899,194,6.217850655,5.705284277,Ba2Ag2P2,0,160.7595067,,3.81350893,-24.69969746,520,1.00E-07
mp-9900,36,12.34709537,4.608984153,Ag4Ge2S6,0,277.1091426,,2.2305387,-48.01570824,520,7.19E-05
mp-9905,62,20.21857804,4.278608482,Ba8Si4,0,469.975938,,2.85592924,-40.81456095,520,2.35E-06
mp-9906,136,7.390709096,12.97183969,Y2Si4Re8,0,227.8353387,,7.24589668,-140.9644091,520,4.50E-07
mp-9907,12,8.465045467,5.010690941,Sr2As6,0,207.0481545,,4.26623889,-36.13876514,520,1.00E-07
mp-9911,217,18.20291093,2.501687264,K3Sb1S4,0.007862218,243.8117426,,0.78922325,-31.01780286,520,2.01E-05
mp-9915,129,-0.784985326,1.994732555,Li2Be2P2,0,78.12979472,,4.30075446,-25.6125589,520,4.50E-07
mp-9916,189,0.686985235,6.768172673,Nb3Cr3Si3,0.024258162,127.3253394,,7.4015936,-80.01128282,520,0.000643067
mp-9919,186,3.263465309,5.159037699,Li2Zn2Sb2,0,124.9563395,,4.54233731,-16.81027428,520,4.00E-07
mp-9920,11,15.89255002,2.940905489,Ti2S6,0,162.6849799,,4.32567428,-48.31195754,520,1.74E-05
mp-9921,11,18.85813601,3.377376973,Zr2S6,0,184.2948352,,2.96608428,-51.47608083,520,5.53E-05
mp-9922,11,16.35289882,5.091838313,Hf2S6,0,179.1593284,,3.30600713,-54.27817771,520,5.65E-06
mp-9928,148,9.549601034,3.371491402,Ca1Rh1F6,0,126.5657165,,-1.36549682,-39.99922086,520,1.0113009
mp-9934,129,4.493169627,3.668570102,Ba2Mg2Si2,0,171.7471966,,3.75372951,-20.2162515,520,6.25E-06
mp-9935,225,10.07410716,6.526799101,Ge1Sb1,0.138507275,49.45897436,,5.71799452,-8.47349293,520,9.67E-05
mp-9938,140,1.123573141,11.37026268,Hf4Si2,0,112.471684,,6.00631834,-55.12713812,520,3.81E-05
mp-9939,140,1.715314919,12.21433887,Hf4Ge2,0,116.8136548,,4.94928387,-52.98360582,520,2.97E-05
mp-9946,186,7.832530377,3.995918222,Zn6S6,0.000933051,243.0370794,,1.91321615,-42.09591581,520,1.98E-06
mp-9950,187,3.119503297,3.419422301,Ba1Li1Si1,0.145118538,83.69826545,,2.28897811,-9.79101706,520,1.04E-05
mp-9951,189,-0.695312614,8.207674868,Mn3Nb3Ge3,0,133.8221852,,5.70091017,-74.54283646,520,0.0004685
mp-9953,194,1.833095112,9.617072331,Hf4P4,0,144.6688732,,7.06313217,-71.84375136,520,1.75E-07
mp-9954,194,4.531044999,10.50738383,Hf4As4,0,160.192056,,6.2757316,-66.4600056,520,7.00E-05
mp-9956,194,-1.860415441,5.338343723,Al2Cr4C2,0,88.95314904,,7.92545774,-65.93341601,520,3.45E-05
mp-9957,194,0.197728343,6.47052956,V4Ge2C2,0,95.74069271,,6.76689562,-67.90901189,520,0.00092835
mp-9958,194,1.496952161,5.564791632,Ti4Ge2C2,0,107.6539272,,6.43621443,-65.7673207,520,3.65E-05
mp-9960,221,3.097168589,6.6876868,Y3Tl1C1,0,119.955616,,4.34026909,-33.45459539,520,1.90E-06
mp-9961,194,1.5896413,6.020725316,Ti4Cd2C2,0,121.439566,,4.84465282,-56.1532837,520,0.00129355
mp-9964,221,1.220684294,8.032509461,Ti3Tl1N1,0.038460099,74.83342417,,8.18072271,-38.15377108,520,0.0031107
mp-9981,60,-8.482886472,6.987770371,Mn8N4,0,117.7555634,,6.85576926,-109.9873371,520,0.000702625
mp-9983,11,6.854262794,9.705605281,Ta4Se6,0.008593768,204.8899573,,5.56965355,-75.69665456,520,4.00E-07
mp-9984,186,22.29502469,3.841032259,Sn2S4,0.000686813,158.0892519,,2.93323496,-26.80255412,520,4.15E-05
mp-9987,194,2.454421653,6.873149317,Nb4P2C2,0,110.5538966,,7.52512654,-75.68774143,520,0.0001056
mp-9988,194,2.630520636,6.809160956,Nb4C2S2,0.027507248,112.1250519,,7.73095167,-73.18990965,520,7.41E-05
mp-9989,194,3.39471165,7.756325491,Nb4As2C2,0,116.7830877,,6.95488974,-73.13229193,520,3.63E-05
mp-9993,227,10.72919014,3.505109936,Al4Cd2S8,0.020014404,279.1646463,,3.68668688,-63.17283786,520,8.79E-05
mp-9998,62,3.217889529,8.593084214,Mo4As4,0.047966271,132.0700927,,8.01586189,-63.85954688,520,3.70E-06
mp-10000,194,0.894261877,11.03529187,Hf4S2,0,117.0833392,,6.37203133,-54.26524496,520,3.06E-05
mp-10003,124,0.964113876,7.830811766,Nb8Co2Si2,0.060023535,194.5128161,,5.8324984,-110.0939723,520,4.55E-06
mp-10008,225,80.43424067,2.012547031,Ca7Ge1,0.234548722,291.4113968,,2.2472444,-18.71185342,520,0.0004009
mp-10009,194,30.67610761,4.804721875,Ga4Te4,0.003980782,272.7837769,,2.66960551,-27.60469652,520,1.96E-05
mp-10010,164,0.032562378,5.387587034,Al1Co2Si2,0.000830171,61.95719468,,8.58487949,-31.5030458,520,0.0002328
mp-10013,216,29.26197184,3.596186872,Sn1S1,0.280286818,69.62034586,,3.41663766,-8.46440136,520,2.00E-07
mp-10014,160,9.093238779,6.161495975,Ta1S2,0.001142157,66.04912009,,3.39465023,-23.26096602,520,0.0011758
mp-10015,221,-0.018729718,13.98853675,Si1Os1,0.041135718,25.91560628,,10.82102396,-17.32051984,520,3.60E-06
mp-10020,225,2.786856305,3.677842528,Sc1C1,0.306432843,25.72031904,,4.21958894,-15.83727244,520,2.00E-07
mp-10023,229,-0.981674881,6.122679703,La1,0.14339925,37.67271309,,7.75670471,-4.80448641,520,0.5025166
mp-10025,62,20.98557978,9.555673318,Si4Ru8,0.028127087,160.029929,,9.139666,-100.7514482,520,1.40E-06
mp-10026,194,3.531301423,5.551644739,Sc2Te2,0,103.2255636,,7.06771752,-23.64055685,520,0.0002128
mp-10027,194,6.708198539,5.924945658,Ti2Se2,0.264706613,71.08965954,,7.14144781,-26.22854864,520,1.27E-05
mp-10030,187,-0.641477102,9.378280448,Ru1C1,0.649255858,20.02231838,,9.42113516,-17.20331445,520,0.0001607
mp-10033,194,41.09025054,4.019516548,Nb2S4,0,129.7494545,,3.18125696,-42.81517603,520,0.00718835
mp-10037,221,0.946772967,6.944424888,Al1Co3C1,0.019737292,51.59977297,,7.17610402,-35.4117171,520,4.00E-07
mp-10040,221,14.30474037,14.14069021,Al1Pt3C1,0.768574525,73.30490332,,7.72667567,-30.12283875,520,0.000355
mp-10044,216,0.7193005,5.087633694,B1As1,0.08030575,27.98203209,,5.9302959,-11.37460619,520,0
mp-10045,193,2.337104285,4.893884161,Ba10As6,0.008402137,618.4923464,,3.01773841,-63.31409492,520,0.00022325
mp-10046,194,0.191233248,6.552641525,V4As2C2,0,95.69733849,,7.73074791,-68.3753437,520,0.00232975
mp-10048,123,8.891670399,5.963490698,Ga1As1,0.417526755,40.27641148,,4.22476043,-7.55474902,520,3.50E-06
mp-10051,225,4.047723869,6.433465169,Te1As1,0.117978654,52.27276661,,6.38204918,-7.58963494,520,1.00E-07
mp-10052,194,0.789346803,5.724083749,Ti2As2,0.012903174,71.24118826,,6.34705132,-28.74204538,520,0.00018375
mp-10054,225,1.065565437,6.701470275,Zr1As1,0.067002463,41.16876503,,6.02336394,-15.35747063,520,2.20E-05
mp-10059,191,0.061764547,7.709827891,Zr1Co3B2,0.009930934,62.38372743,,6.25883165,-46.56983276,520,0.0011917
mp-10064,225,0.976215062,4.146370812,Si1O2,1.27136736,24.06256709,,9.1441976,-19.93187897,520,1.07E-05
mp-10074,122,18.69300808,4.305993919,Ge2Se4,0.014671571,177.823698,,1.18509077,-24.7264813,520,9.10E-06
mp-10086,129,2.564747217,4.685387147,Y2S2F2,0,99.21246722,,4.25563181,-42.87784525,520,2.74E-05
mp-10092,123,1.517500171,5.554192516,K1Cu4Se3,0.013041511,158.5028236,,3.83473644,-30.86791163,520,0.0002114
mp-10098,186,5.119683499,9.286327547,Y2Ge2Au2,0,128.2151346,,5.09373873,-33.75208932,520,9.95E-06
mp-10101,131,20.40898871,3.446395764,Cs2Ag2C4,0.387077979,255.1665864,,-1.0499512,-41.46585545,520,2.19E-05
mp-10102,123,6.044181843,2.825296085,K1Ag1C2,0.377456962,100.4963993,,-1.36844748,-20.96658026,520,0
mp-10110,221,0.53054277,8.194590145,Si1Rh1,0.281266014,26.54381312,,9.88896966,-13.85758262,520,0.0004682
mp-10112,191,1.650889816,14.47576352,La1B2Ir3,0,84.56297502,,9.79441594,-48.6895386,520,3.02E-05
mp-10113,221,-3.35356171,14.69109935,Sc1B1Ir3,0,71.48237224,,7.89805494,-42.82380869,520,2.43E-05
mp-10114,176,3.758679106,12.6282778,Sc2B8Ir6,0,174.8474198,,8.72382242,-128.4889055,520,1.10E-05
mp-10125,194,4.376425149,13.02801571,Sb2Ir2,0.086173364,80.03844604,,9.15977434,-26.75291928,520,4.40E-06
mp-10133,221,4.359171502,5.683587681,Sc3B1Pb1,0,103.0984213,,5.17175659,-31.98101548,520,0.0003048
mp-10136,127,1.553356639,8.962410249,Ti4Re2B4,0,112.487199,,7.18937471,-91.52324366,520,0
mp-10139,221,5.593556847,4.342501188,Sc3Sn1B1,0.010966514,101.1002183,,5.15317999,-32.71530539,520,0.0004179
mp-10140,221,-1.273800685,5.633902739,Sc3Tl1B1,0.037099815,103.1774427,,4.48126054,-29.80643894,520,0.0003492
mp-10143,216,12.00113614,3.189471618,Ti1B1,1.554793645,30.54960867,,3.22461043,-13.12963577,520,0.0012778
mp-10144,191,2.664772374,12.75183067,B2W1,0.280702249,26.75519156,,9.60977623,-26.55048225,520,1.22E-05
mp-10148,221,16.24591185,7.116261029,In1Sb1,0.23790645,55.20413085,,7.42031374,-6.63102132,520,7.85E-05
mp-10149,225,8.273582288,6.765320677,In1Sb1,0.14787516,58.06775817,,6.57257837,-6.8110839,520,2.45E-05
mp-10152,129,3.765733298,10.7864855,La2Si4Ir4,0.011613321,178.4269324,,9.32002353,-77.34785703,520,1.60E-06
mp-10154,216,-1.157901551,10.71106568,Mn1Sb1Ir1,0.065271778,57.19298649,,7.29575124,-22.72835237,520,3.1061567
mp-10155,14,4.991402106,9.076968398,P8Ir4,0,185.9872575,,8.24672503,-87.30686506,520,3.73E-06
mp-10157,225,39.60229527,0.88080365,K1,0.014007152,73.71024578,,-0.09773095,-1.09632717,520,0.0001145
mp-10159,225,3.833113691,2.528643339,K3Sb1,0.028535317,156.9853636,,1.20699809,-8.96456639,520,0.0002069
mp-10162,127,0.645603485,5.6217308,La6Si4,0.0030833,279.3616535,,8.00549665,-57.63375292,520,0.001778
mp-10164,140,4.278608603,4.881189693,Na2Ga2Te4,0.006130395,236.7139047,,3.40648072,-25.93534286,520,7.02E-05
mp-10167,217,6.540437429,2.775573612,Na3Sb1S4,0.006566632,190.8413442,,1.67055749,-30.67990154,520,3.30E-05
mp-10172,194,-1.3937805,1.028520292,Na2,0,74.23365337,,0.47826808,-2.62518307,520,7.62E-05
mp-10173,194,0.560733675,0.570871397,Li2,0.00197402,40.37967757,,-0.24209444,-3.81199726,520,5.71E-05
mp-10175,221,8.210360779,3.873116458,K1Cd1F3,0.02567,89.39309778,,-1.99577568,-19.82163577,520,1.30E-06
mp-10177,123,7.976509327,7.102797368,La1Sb1,0.218857845,60.94010105,,8.61894601,-11.15564752,520,0.0001755
mp-10178,216,-6.442026062,2.146787208,Li1Mg1P1,0.35078192,48.12696082,,3.97821874,-10.15729766,520,1.76E-05
mp-10179,216,6.874206635,6.100555951,Li1Mg1Sb1Pd1,0.066504842,70.61438407,,6.55677724,-15.13465458,520,1.88E-05
mp-10180,216,3.775504592,6.165656394,Li2Sb1Pd1,0,65.19231294,,4.96257125,-15.76679892,520,0.0002773
mp-10181,225,-0.413685843,5.969889193,Li1Si1Ni2,0,42.39412604,,7.88571557,-20.90446695,520,6.70E-06
mp-10182,216,0.172830172,3.592061903,Li4Zn4P4,0,191.0581111,,3.27281933,-40.95959844,700,8.30E-06
mp-10183,216,2.104526304,6.539553603,Mg1Sb1Pd1,0,64.11159308,,5.678319,-12.78796405,520,0.000128
mp-10187,194,10.87610806,12.80956682,Te2Ir2,0.2907044,82.91749776,,9.25886825,-23.72374465,520,2.40E-06
mp-10191,227,9.212228716,5.991179924,Lu4Mg2Se8,0,382.5300307,,1.75525415,-72.78999936,520,1.00E-07
mp-10194,216,2.453432257,11.70752383,Lu1Sb1Pt1,0,69.75611389,,6.43081642,-18.3374839,520,0
mp-10195,227,2.397914411,6.84805508,Lu2S4,1.665343373,115.9540623,,6.51263789,-25.23304766,520,0.00020485
mp-10196,164,10.81489304,15.27473809,Ta2N1,0.111632567,40.86490429,,7.48724361,-34.46309967,520,1.79E-05
mp-10197,225,0.373312375,7.197063953,Zr1O1,0.346655634,24.73906622,,7.95218311,-17.92893629,520,2.08E-05
mp-10200,194,0.99347655,4.856157989,Zr2Be2Si2,0,87.7579202,,6.29985127,-39.90220415,520,1.40E-06
mp-10204,194,9.597283082,5.772185535,Mn2Se2,0.01167161,77.03942632,,4.30734992,-26.69186573,520,0.1398163
mp-10208,194,0.890979064,6.624752132,Ni2Mo2P4,0,108.5749542,,9.50197522,-59.47590366,520,1.25E-05
mp-10209,189,1.837422303,5.216063978,Y3Al3Ni1Ge2,0,175.6137188,,5.58651528,-52.42447536,520,1.52E-05
mp-10214,166,3.812054779,8.519298883,Y2Ge1Rh3,0,108.990263,,5.48477694,-44.90359331,520,3.94E-05
mp-10219,129,-0.396080223,4.961871468,Y2O2F2,0.009180335,82.93114994,,1.7651802,-49.67423993,520,2.40E-06
mp-10224,166,0.672439929,3.144127062,Na1V1S2,0.019019754,72.91566881,,4.80590962,-22.72986412,520,0.0011369
mp-10226,166,15.21213068,3.174351224,Na1Y1S2,0,92.08099301,,2.17220363,-23.44967016,520,0
mp-10228,164,3.100483098,5.868052737,Nb1Se2,0.030153052,70.97874115,,3.65936278,-19.51881382,520,0.0002247
mp-10229,223,-50.52508927,7.55637452,Nb6Si2,0.123739631,134.8427294,,6.0984925,-74.31870122,520,0.0010348
mp-10231,156,-9.919285568,4.021699915,Li1Mn1Se2,0.114279753,90.75388589,,1.8676656,-20.32296597,520,0.0022258
mp-10232,156,-6.189583815,3.857166679,Na1Mn1Se2,0.094491401,101.5342441,,1.86113816,-19.61787761,520,0.1156086
mp-10240,62,0.99666284,5.322018457,Sc4Ni4P4,0,168.0166064,,8.13967215,-84.55352471,520,7.50E-08
mp-10250,221,2.945046942,5.020978165,Ba1Li1F3,0.02196861,66.56181443,,-0.97896872,-26.89029715,520,0
mp-10256,194,4.488451603,6.681206054,V2Te2,0.151087205,88.74898592,,7.36546011,-25.10655008,520,0.00064285
mp-10257,194,6.095050744,9.032891536,Ni2,0.030489925,21.579509,,7.98910881,-11.50116825,520,0.6443898
mp-10260,225,-1.097969864,9.542403598,Ni3Sb1,0.04788598,51.82921417,,10.01092389,-21.8862481,520,0.0001573
mp-10261,225,2.409418833,8.320774637,Ti1Ni2Sb1,0.099731602,57.27803488,,9.9534028,-24.98956671,520,9.95E-05
mp-10264,166,-1.509096014,7.171055529,Ni2Te2,0.000504683,86.27668893,,6.63745844,-18.60845397,520,0.0006297
mp-10266,221,-1.600370162,7.573773196,Zn1Fe3C1,0.023450542,53.70597084,,5.22666842,-35.79957546,520,4.1060844
mp-10270,221,-0.675663064,7.010072285,Sc1Co3C1,0,55.37430722,,6.0916664,-38.35077392,520,3.10E-06
mp-10271,221,0.332056326,8.082785657,Zn1Co3C1,0.009143665,52.22717333,,5.09396809,-31.88400234,520,1.0816537
mp-10281,186,5.0898481,3.995110925,Zn4S4,0.001388366,162.0574602,,1.90764041,-28.06030135,520,6.10E-06
mp-10288,14,4.290561237,6.335790131,La4Cu4Te4S4,0,379.6265489,,7.27849189,-86.05388339,520,0.02516255
mp-10289,140,0.048012959,2.658159165,Ca2B4C4,0,107.0994793,,4.47842784,-70.94105061,520,9.45E-06
mp-10293,15,5.826033166,3.741073122,Ba2C4,0.14810021,143.2344723,,0.10512283,-40.23732558,520,7.97E-05
mp-10300,189,3.689104169,7.477222194,Zr3Mo3P3,0,145.3318868,,7.79499069,-83.26543423,520,2.67E-06
mp-10322,129,3.377874213,7.810628399,Ba2Hf2N4,0,146.196637,,3.32030589,-67.82931925,520,4.67E-05
mp-10326,147,20.49653906,4.777768988,Zn1Re2O8,0,196.6531268,,-2.34240097,-83.34799851,520,7.38E-05
mp-10335,87,7.375793524,6.550113444,Ba2Cu1Te1O6,0.020589706,142.4227019,,3.75514513,-58.17227411,520,0.755459
mp-10341,149,6.056534114,5.052850863,Sr1Ge1Te1O6,0,126.1482983,,1.71035477,-55.46760058,520,7.10E-06
mp-10347,123,14.15706639,6.281334057,Cs1Ca2Ta3O10,0.023103125,242.1278959,,1.64803625,-136.2340725,520,0.0002386
mp-10359,191,0.200998353,8.433582586,Zr1Co6Ge6,0.009587595,173.3990934,,5.86086625,-83.23811115,520,1.35E-05
mp-10365,194,-5.162766902,6.808793915,Mn2Co2Si2,0.412850457,69.24125233,,8.32333221,-43.65580425,520,0.00111055
mp-10366,194,0.538527024,8.371823287,Nb4Co6Si2,0,154.9887049,,6.71123602,-99.32449859,520,0.00012935
mp-10367,216,7.625895217,9.800231955,Hf1Sb1Rh1,0.490265013,68.31016347,,5.75745339,-22.02116106,520,7.78E-05
mp-10371,194,-0.353215725,6.818052773,Cr4Ga2N2,0.031555939,91.43946343,,6.62302532,-63.72428992,520,0.0017481
mp-10373,221,-2.198363646,8.10662169,Cr3Pd1N1,0.07702191,56.62012072,,6.79241905,-43.3441569,520,0.0048124
mp-10374,221,0,10.70269106,Cr3Pt1N1,0,56.64257042,,7.52694766,-44.95893084,520,1.4266584
mp-10376,221,-1.742026606,7.85678637,Cr3Sn1N1,0.127184781,61.01806782,,9.034846,-41.8082022,520,2.3883507
mp-10378,225,10.99491467,4.228331708,Cs3Sb1,0,204.4000726,,2.48496663,-8.03334578,520,0.0001924
mp-10379,189,0.865298646,10.98268709,Hf3Cu4Ge2,0,141.3583392,,6.07104509,-59.422097,520,3.33E-05
mp-10381,63,4.929540967,3.311058105,K4Cu2Sb2,0,264.3000156,,1.97291933,-23.39922835,520,3.40E-06
mp-10383,62,9.326735015,6.554645431,La4Te4As4,0,345.985445,,6.79426692,-66.59469806,520,1.75E-06
mp-10394,194,-0.283736858,8.202507654,Cr2Co2Ge2,0.065770979,74.3245831,,6.3339761,-43.25104048,520,5.79E-05
mp-10401,164,7.690156456,6.480472881,Tl2Sn1F6,0,164.3677935,,-0.0091628,-40.38129697,520,0.000229
mp-10402,164,6.98151648,6.057885924,Ti1Tl2F6,0,156.4148736,,-0.43813302,-48.83521132,520,8.67E-05
mp-10408,12,0,2.096868571,K4C2N4,0,187.2411943,,0.52892186,-60.95257825,520,0
mp-10413,215,5.77636083,1.905573167,Ag1B1C4N4,0.432145279,194.105944,,-2.26707779,-76.84482677,520,1.63E-05
mp-10417,15,12.83550585,3.982666038,K2Sb2O4,0,160.820285,,2.44128111,-42.60327902,520,7.18E-05
mp-10418,15,14.52006458,4.41289928,Rb2Sb2O4,0,180.0381489,,2.14500068,-42.16383438,520,2.50E-07
mp-10421,123,17.57290114,4.626261101,Rb1Au1C2,0.330010807,109.9984971,,-0.66576145,-21.9784855,520,0
mp-10423,123,8.534571331,4.368424905,K1Au1C2,0.336048772,98.86478829,,-0.6846201,-22.12590267,520,0
mp-10426,5,3.78463778,5.298478019,Nb4O10,0.380797272,166.6091591,,2.47620428,-120.7030381,520,2.00E-06
mp-10435,164,16.45541049,3.272890355,Y1Al2Si2,0.003323564,100.9852252,,6.35223501,-26.73068673,520,8.00E-07
mp-10440,187,4.494801442,8.198944702,Mg1P4Rh6,0.023778563,155.0642934,,8.34604586,-75.42705974,520,5.00E-07
mp-10445,189,0.501889528,4.908903817,Sc6Fe1Te2,0,196.4611008,,6.01653669,-58.37076059,520,0.0012102
mp-10446,189,1.616309972,4.94082234,Sc6Ni1Te2,0,196.1492359,,6.0850516,-56.25765008,520,0.0022109
mp-10456,62,4.42756082,13.66020885,Hf4Si4Pt4,0,195.3033919,,8.01531497,-99.06657937,520,0
mp-10457,62,3.211901651,10.62009612,Hf4Si4Pd4,0,195.7576434,,6.99757523,-93.74646919,520,3.40E-06
mp-10463,191,-1.566993889,7.483548957,Y2Co8B2,0.011093452,148.8671243,,4.97983633,-86.65904852,520,0.0009007
mp-10464,62,2.3654006,3.343359059,Ca4F8,0.052167798,155.1089928,,-0.52970403,-69.68277018,520,1.93E-06
mp-10469,62,5.965351142,11.28890455,Nb4Si4Pt4,0,185.9724603,,8.25266809,-95.97534246,520,2.25E-06
mp-10470,62,5.801224746,8.27982299,Nb4Si4Rh4,0,179.6126999,,7.55288414,-101.9235432,520,2.25E-07
mp-10474,225,12.78340035,2.264945755,Na1P1F6,0,123.1349983,,-3.61997233,-39.76229317,520,0
mp-10485,194,7.334189816,4.539450075,Ba2Li2Sb2,0,194.6270462,,2.90207055,-21.58517653,520,4.56E-05
mp-10486,12,10.45707581,5.065624254,Cd2As2O7,0.014124001,159.5301091,,0.4652262,-59.30045031,520,0.0001004
mp-10487,14,48.09778939,3.88845979,Rb8Sb8,0.000592373,707.9612405,,2.26658732,-47.57747806,520,1.82E-05
mp-10492,225,9.038457619,3.255423434,Rb2Si1F6,0,159.6621325,,-2.85465538,-46.97744747,520,1.01E-05
mp-10509,176,8.571928122,4.824328842,Ba2Ga2B2O6F4,0,209.1751113,,0.36116544,-105.2196813,520,3.30E-05
mp-10519,9,4.350675358,4.624008493,Cu4Sn2S6,0,245.6307643,,5.41130109,-53.14257895,520,3.35E-06