material_id,spacegroup.number,delta_volume,density,full_formula,e_above_hull,structure.lattice.volume,band_gap.optimize_structure_gap,efermi,final_energy,encut,total_magnetization
mp-569640,194,-2.42949334,6.299307639,Ti2Sb2,0.2898655,89.42959191,,7.4546905,-24.73189471,520,0.24939105
mp-569655,14,-5.442342704,1.854587342,B4N4,0.320945696,88.88394481,,1.0010796,-67.73336857,520,0
mp-569668,194,1.669685175,6.06461844,V2Se2,0.444031023,71.1360539,,6.29860632,-26.07649605,520,2.35267705
mp-569671,198,5.405768795,7.671287725,Zr4Sb4,0,184.4114102,,7.3496845,-56.4247435,520,2.35E-05
mp-569677,166,3.342091907,4.768672206,Sr2I1N1,0,110.0896303,,3.15917125,-17.60035838,520,9.34E-05
mp-569679,129,19.58106509,4.681028741,Zn2Se2,0.159956615,102.4263571,,0.66472307,-11.73050568,520,3.65E-06
mp-569683,59,14.76366473,15.31548731,In2Au6,0.000991749,153.0309523,,6.46532862,-26.11847294,520,8.40E-06
mp-569685,216,-3.056404842,3.796397353,Li1Zn1P1,0.448417883,45.193673,,3.18850568,-8.89464596,520,2.28E-05
mp-569707,62,41.06544773,6.21597313,Bi4Se4Br4,0.008639731,393.0647537,,1.82098895,-42.65924361,520,0
mp-569766,12,39.6619834,4.922315702,Te4I4,0,343.4274711,,2.77252368,-19.32119241,520,0.000165425
mp-569775,221,10.18796224,4.127420374,Zr1Al3,0.019700826,69.26668042,,7.52327455,-21.65368612,520,1.10E-06
mp-569779,216,2.008726654,6.997261364,Sc1Sb1Pd1,0,64.81862282,,6.48216369,-18.76789962,520,4.42E-05
mp-569785,221,-28.54949052,12.69484499,Tl1Pd3,0.020196176,68.49474279,,5.81754357,-18.69708066,520,0.0003424
mp-569788,187,1.4842371,4.818966622,Li3Zn3Ge3,0,149.8837246,,2.33938483,-25.59208985,520,0.000396167
mp-569792,194,10.53111783,10.35729689,Cu2Bi2,0.113394715,87.38587518,,6.57654098,-15.54149555,520,0.00046605
mp-569794,136,12.53515516,16.05565003,Ta30,0.005362264,561.4304344,,5.26137385,-355.5054878,520,1.66E-06
mp-569803,194,15.43378273,12.27318122,B8W4,0,111.1945359,,8.59418456,-109.570356,520,1.95E-06
mp-569807,194,4.900979078,3.935602776,Rb2Ti2Br6,0.000195625,314.7974074,,3.22167205,-41.21207669,520,0.00024225
mp-569813,111,37.46560209,5.499756056,In5Ag1Te8,0,514.1130693,,3.99449341,-46.01278867,520,0.0001293
mp-569823,225,3.942673552,8.045781866,Y1In1Ag2,0,86.57084326,,5.0522299,-16.37907075,520,9.00E-07
mp-569833,140,1.045052555,6.788350338,Zr4Ga2,0,123.3701177,,3.86435339,-43.05441961,520,8.67E-05
mp-569834,194,-0.048516786,6.857001406,Li2Cu4Sn2,0.003148855,122.4119972,,6.52866341,-29.74296738,520,7.89E-05
mp-569843,166,2.348218718,4.076516616,Mn1Br2,0.000305193,87.47522089,,0.85415026,-14.86760384,520,4.9999681
mp-569848,189,-32.10308542,12.72734252,Lu3In3Pt3,0,189.7828794,,6.38392642,-48.92834437,520,6.29E-05
mp-569873,71,15.96095059,5.157938836,La4C2Br5,0,315.2303477,,,-62.56008162,520,1.48E-05
mp-569875,221,2.649265257,8.589000541,Sc1B1Rh3,0,70.46674781,,5.91074337,-38.87159812,520,0.0012682
mp-569876,63,1.354246627,3.083888432,Li2Mg2V2O8,0,157.4285652,,1.08390237,-93.1470437,520,8.26E-05
mp-569886,191,11.87045302,6.685276291,K1In9Ni2,0.013456924,295.5431422,,6.78547348,-38.71722833,520,1.29E-05
mp-569912,164,2.859044061,2.552730875,Ca3Si1Br2,0.181998883,200.4354427,,3.25259128,-21.13933031,520,0.0011944
mp-569916,164,5.635038468,9.515472755,Al6Pt4,0.352988032,164.4271201,,7.52808226,-53.15194146,520,1.71E-05
mp-569933,156,-10.55696601,7.290193865,Hf1Cu1P1,0.79316693,62.18536523,,4.07028322,-19.68072932,520,8.50E-06
mp-569935,71,0.841187712,6.387444998,La3B2N4,0,128.5197339,,8.8177413,-73.52641511,520,3.82E-05
mp-569940,194,11.2298699,2.891516607,K6Bi2,0,374.7465065,,0.52576829,-17.38292442,520,6.60E-06
mp-569960,166,9.314176493,4.049329352,Zn1Br2,0.086471337,92.35643448,,,-7.00639158,520,0
mp-569989,62,3.392913643,7.673756798,Nb8C4,0,171.2296008,,5.4749339,-123.3249325,520,4.80E-06
mp-570001,63,0.354081848,3.419704549,Al12Fe2,0,211.4546369,,8.16754729,-64.63788189,520,4.77E-05
mp-570002,229,18.79618429,2.75104493,C8,0.762539114,57.99755875,,6.56610935,-67.70347574,520,0
mp-570008,221,4.459140391,5.539938952,Sr3Bi1N1,0,145.6276114,,3.4674654,-21.61326701,520,6.19E-05
mp-570014,216,5.172188813,11.16145686,Yb1Sb1Pt1,0,72.88219787,,4.71817029,-14.58170773,520,8.50E-06
mp-570032,166,17.11726017,2.367738497,Ca3Si1Br2,0.192629925,216.0955459,,,-21.07554406,520,0.0301904
mp-570062,10,18.0345856,4.81791556,Zr1Ti1Se4,0.019924053,156.7961656,,2.68772821,-37.62444167,520,3.60E-06
mp-570076,121,18.42566063,6.956868897,Tl2Cd1Sn1Te4,0.009586571,274.5628091,,4.39188393,-24.69029929,520,5.90E-05
mp-570081,164,-2.448621779,5.687300879,Cu2I2,0.00080496,111.2128397,,3.9940612,-11.85826327,520,4.77E-05
mp-570097,166,1.466487904,2.34674964,Sr1Li4P2,0,125.4781991,,2.24836694,-25.96357809,520,0
mp-570099,194,23.37090132,3.881268067,Rb2V2Br6,0.000228425,321.8350764,,2.62452886,-42.18066957,520,2.99935925
mp-570113,227,6.764231737,15.08241276,Bi2Au4,0,132.7587944,,,-21.18251242,520,0.0001919
mp-570118,166,7.741817502,7.955525409,Yb1Tl1Se2,0.111755623,111.7410106,,2.75590784,-15.16977783,520,0.0001027
mp-570136,156,10.24577616,5.63809895,Cu6I6,0,336.5500784,,3.96658641,-35.58444933,520,6.47E-05
mp-570140,141,36.59079353,7.089624815,Au4Br4,0.011579029,259.3956103,,0.12685191,-20.61199113,520,0.00015345
mp-570142,160,-10.9709311,2.731335806,Ca3Si1Br2,0.279867105,187.3287576,,,-20.55212098,520,0.2070482
mp-570157,59,8.438562803,4.498241084,Zr2Br2N2,0.014410348,136.6860474,,1.25247097,-46.58445117,520,5.04E-05
mp-570172,36,8.196417315,5.100485724,Hg2I2Br2,0.011099801,265.2692708,,-0.96029915,-9.2162972,520,7.56E-05
mp-570182,160,-28.16765958,2.90942453,Ca3Si1Br2,0.213316873,175.8621809,,,-20.95142237,520,0.4353347
mp-570199,123,4.244246535,8.904610728,Ti3Pd5,0.000503744,126.0052712,,5.74609097,-54.49573001,520,0.0006343
mp-570211,14,45.88146232,3.927114928,Hg2C4Se4N4,0.340397282,347.189059,,-0.85825725,-79.35081181,520,0.00028055
mp-570213,216,3.788990357,4.965554177,Li1Mg1Bi1,0,80.33450073,,2.88707526,-8.61986826,520,4.06E-05
mp-570219,12,39.32311264,4.176095811,In2Br6,0,281.9431989,,-0.3707467,-22.04148293,520,8.00E-05
mp-570231,221,26.39157511,4.529577051,Cs1Cd1Br3,0.032818175,177.8110121,,-0.53561618,-12.93930798,520,0.0002235
mp-570245,11,7.995152961,5.168380115,Ba4Ga2Ge2N2,0,276.9655734,,2.64820162,-45.53572557,520,6.95E-06
mp-570256,111,23.85574164,5.47423436,Ag2Hg1I4,0.001559107,280.2666906,,0.91773607,-14.14617368,520,0.0005356
mp-570276,221,0.301100573,6.949382344,Zr1Zn1,0,37.42709763,,3.86339787,-10.38124274,520,1.52E-05
mp-570286,139,-0.980751973,4.197759485,Bi2Se2,0.263225253,227.8054649,,,-15.00379697,520,8.35E-06
mp-570292,12,3.706226095,8.347316904,La7Os4C9,0,366.3022763,,8.03093967,-168.0901592,520,0.0008944
mp-570298,11,15.13053608,9.349322782,Ba2Sb4Au4,0,275.2183653,,5.4665217,-39.52914204,520,1.50E-07
mp-570301,11,16.45898634,6.245163568,Ag2Br2,0.041352148,99.85425212,,1.29781849,-10.24231353,520,9.58E-05
mp-570316,134,-15.71188295,2.302981351,B48,0.152681028,374.1672517,,4.06789957,-313.2405871,520,7.16E-06
mp-570324,87,45.30006914,3.754616409,Rb2Te1Br6,0,344.0650513,,-0.33577918,-24.44469377,520,0
mp-570334,229,23.24143327,13.59286179,Si2W6,1.485513208,141.6122043,,6.45745794,-77.87499438,520,0.0002353
mp-570354,225,4.067724207,6.168405166,Cu1Br1,0.178625075,38.61684161,,4.70985168,-5.8791396,520,8.74E-05
mp-570377,215,-0.188822209,5.408431687,Sn3As4,0.025097109,201.3538856,,4.24652291,-30.91069231,520,0.0004597
mp-570418,164,13.74994146,5.261081553,Yb1I2,0,134.7250222,,0.21611486,-9.57470204,520,2.35E-05
mp-570428,221,13.13631564,4.451604738,Sc3In1,0.013077956,93.13785405,,5.20902044,-22.88043051,520,1.5485489
mp-570430,194,-66.30525245,13.02235416,Ta4Co8,0.020606072,152.4126145,,6.02030825,-106.8775148,520,0.000185875
mp-570436,227,2.060115428,12.88243683,Ca2Ir4,0,109.4387279,,6.23781693,-42.17323578,520,2.11E-05
mp-570437,156,41.59114977,5.057055526,Cd3I6,0.001202587,360.7568699,,1.00305716,-17.17696821,520,4.33E-05
mp-570443,2,44.69621538,6.458569732,Tl6C3N6,0,346.1607642,,2.3687482,-90.20557193,520,2.33E-07
mp-570454,191,10.09083768,12.46093506,Ta3N3,1.318644745,77.93869954,,6.46981889,-59.70016046,520,5.62E-05
mp-570459,12,19.20249886,6.442531878,Te3,0.040886867,98.66530062,,6.34611563,-9.30458479,520,4.33E-07
mp-570466,194,-17.10419804,1.083250852,Li8Ca4,0,330.8658799,,0.92773222,-23.46809821,520,0.002261575
mp-570485,156,0.312065449,3.102444998,Sr1Al1Si1H1,0,76.91066949,,4.18885407,-15.98721436,520,8.20E-06
mp-570491,139,0.227036819,12.03462118,Ta1Ni3,0,49.2627941,,7.62334749,-30.63288989,520,0.0009047
mp-570506,31,47.20440469,5.355359924,Zr4I8,0,427.9381219,,4.61992064,-57.08470007,520,9.10E-05
mp-570510,194,51.37094106,2.610612125,Xe2,0.00046573,167.0237797,,-6.8983468,-0.07057024,520,0
mp-570514,162,5.686124201,3.224079568,Cd2Fe1C6N6,0.14808354,224.9559745,,-0.26176731,-112.5083637,520,1.42E-05
mp-570528,225,-3.880726669,8.949218473,Li2Ga1Ir1,0.219420412,51.17912815,,3.96792076,-16.52372541,520,0.0001208
mp-570538,12,1.583638549,1.793322043,Na1N3,0.000752215,60.19634141,,-0.19107409,-26.72344075,520,0
mp-570543,227,-1.827750739,3.820254234,Mg16Sn8,0.19512152,581.8280672,,5.33784728,-57.49996135,520,8.13E-06
mp-570549,164,28.63760343,7.862870051,Ag3Bi3Te6,0.242536018,362.4283602,,5.53166199,-39.89485296,520,5.00E-06
mp-570562,12,15.5666807,10.23199686,Te6Pt4,0.004089532,250.8881811,,7.01058102,-46.9378035,520,0.00056345
mp-570572,160,-3.557340661,2.106120366,C3N4,0.136738019,72.5824601,,3.09092087,-58.52914336,520,0
mp-570589,41,38.11362585,3.638918437,Se4Br4,0.007620163,289.9761329,,-0.30059015,-21.178012,520,0
mp-570591,221,-3.280787264,4.631303751,Cs1Hg1Cl3,0.032591479,157.7083967,,-0.05508999,-12.51499096,520,1.48E-05
mp-570597,164,7.005029157,5.186339816,La2Ge1I2,0,193.4692204,,4.38037332,-24.01767458,520,1.02E-05
mp-570602,134,-11.21019827,2.386001591,B50,0.223393837,376.1960517,,5.90946422,-322.7566378,520,0.00033033
mp-570604,194,9.530146925,14.80198965,Ta2N2,0.243879731,43.74137516,,8.08838016,-44.09916703,520,1.07E-05
mp-570632,225,2.237324444,7.666075754,Sc1Bi1,0,55.00482558,,5.35898923,-11.54175499,520,0.0002855
mp-570657,227,59.34451525,2.063830478,Mg4Si2,0.56960952,123.4169892,,4.70090957,-14.76639906,520,2.76E-05
mp-570668,14,5.530821785,6.227737369,La4Se8,0,316.5774353,,6.07277068,-68.79396374,520,6.35E-05
mp-570670,194,-23.51190193,14.30269237,Y4Os8,0,217.9730356,,6.22061052,-119.3741693,520,1.08E-05
mp-570677,187,9.354225774,4.32559219,Ba5Al5Sn1,0,360.9508793,,3.73595331,-36.18121402,520,0.0053823
mp-570684,194,37.75882652,15.28155882,Zr4Os8,0,205.0182723,,6.77531232,-128.6607447,520,1.49E-05
mp-570686,64,41.42884394,8.993577832,Sn4Bi4,0.063646025,242.0138959,,6.89440676,-31.12140132,520,2.21E-05
mp-570687,11,12.4183178,5.433842048,Ag2Cl2,0.011372675,87.5956444,,1.49844007,-11.0243001,520,9.85E-06
mp-570689,62,9.769122446,8.430936243,Ca4In4Pt4,0,275.7252274,,5.85197392,-53.21293094,520,1.03E-06
mp-570691,221,-0.461434039,6.019281451,Ti3Sn1,0.0412919,72.36372974,,7.56013932,-28.73944736,520,0.0002151
mp-570697,224,35.71911914,1.893619294,Ca4C8,0.769831698,224.8383431,,1.65849802,-72.65308451,520,2.08E-05
mp-570698,221,-3.947377668,9.956127096,V3Au1,0.100675593,58.34012768,,6.08487913,-30.25854879,520,0.0607393
mp-570708,160,1.386988379,6.219853068,Cr1Ag1Se2,0.162288442,84.84014504,,3.86446079,-20.22851414,520,2.9954738
mp-570713,194,0.98966155,9.656848404,Ti2Al2Pt2,0,92.83225743,,7.7847706,-40.91337875,520,2.40E-05
mp-570722,193,84.81223479,4.338446522,Nb2I6,0.040305485,362.5556509,,2.26412704,-32.99608017,520,1.3745771
mp-570744,215,-0.160939821,4.117948365,Si3As4,0.071674998,154.8227705,,4.69137156,-34.99957684,520,0
mp-570747,136,8.078290948,1.056321203,N4,8.88E-16,88.07424149,,-6.29953094,-33.26626098,520,0
mp-570751,223,3.504411556,9.049266249,Nb6Te2,0.098298712,149.1190061,,7.82899085,-68.14649431,520,0.00014755
mp-570761,162,-1.636602328,3.498003664,Mn2Os1C6N6,0.117262288,216.5679061,,1.2246116,-132.778177,520,9.9990104
mp-570769,216,-3.156084447,7.10373177,Ca1In1Cu4,0,95.62485359,,6.45178609,-22.15590935,520,5.85E-05
mp-570771,166,0.863379112,2.682239956,Ba1Li2Mg2Si2,0,158.4800002,,3.16838328,-21.94859288,520,9.70E-06
mp-570775,62,15.7782935,7.975962954,Ba4Au4,0,278.3902209,,3.09478505,-26.55058288,520,3.18E-05
mp-570778,138,687.2144802,0.829426629,Cl16,0,1135.648912,,-4.33357401,-28.79753472,520,0
mp-570786,194,-7.593223556,0.962785482,K4Na8,0.000292256,586.9430939,,0.1719005,-14.93856249,520,0.0019482
mp-570803,11,32.65694073,5.08730608,Ba4Ge2Te4Se4,0,496.4109152,,2.56679803,-60.49011976,520,7.59E-05
mp-570826,225,3.78990439,9.874164389,V1Sn1Rh2,0.101662791,63.1415596,,8.48343418,-29.1076001,520,0.0074042
mp-570835,229,9.360123364,12.09385235,Ni1Hg4,0.028603032,118.2264133,,2.46140764,-6.85282069,520,3.50E-06
mp-570849,72,10.32026346,5.26227505,Mg10Tl4,0.010320378,334.6727019,,4.8113344,-25.81046279,520,5.65E-06
mp-570863,123,0.079167528,15.2081086,Cr1Co1Pt2,0.035601118,54.71368223,,6.92992526,-29.41941786,520,3.2911942
mp-570875,70,2.335190675,12.47511161,Ga4Os2,0.071401135,87.76512561,,6.22318919,-35.55089962,520,4.00E-07
mp-570891,221,13.79709272,2.989045873,K1Br1,0.073070375,66.11071672,,-0.7288044,-6.12455737,520,1.82E-05
mp-570896,140,10.30190755,12.24063258,Tl4Pd2,0,139.7783091,,6.56426404,-20.7108679,520,9.55E-06
mp-570904,194,2.56912163,8.723198525,Ga2Ni4,0.022658255,71.23605562,,6.79726099,-31.12863641,520,3.10E-06
mp-570922,115,-8.886137824,1.803984153,Mg1Cl2,0.083940903,87.64022804,,-1.363911,-10.61321109,520,0
mp-570923,194,4.532204354,13.50377548,Y4Re8,0,226.9112433,,5.63272068,-127.9934345,520,3.30E-06
mp-570930,164,-1.230759533,7.619755233,Bi2Pb2Se5,0.007066809,267.4296423,,4.25828913,-36.78503288,520,0.0001027
mp-570935,186,5.026149594,3.316300703,Li2I2,0,134.0382843,,-0.06013211,-11.79689382,520,0
mp-570936,59,24.36667927,9.216112286,K2Sn6Au6,0,355.3567932,,5.36667744,-49.94036228,520,2.15E-06
mp-570938,194,12.24744278,11.76393899,B10W4,0.571667979,119.0600245,,9.87115149,-114.9240575,520,4.08E-05
mp-570960,194,0.020568957,18.40847341,Hf4Os8,0.059716687,201.6806664,,7.0671784,-134.5386123,520,1.28E-05
mp-570964,166,-7.934411609,5.088507425,Zn1I2,0.139707243,104.1707926,,1.95040339,-5.74350423,520,0.0001649
mp-570988,164,3.815461004,4.830907329,La2P1Br2,0,161.070462,,5.30528832,-27.7963894,520,0.0008063
mp-570991,71,-5.538574103,4.066141644,Ti1Si2,0.17320382,42.48724608,,8.98053864,-19.91325087,520,0.0003765
mp-570998,191,2.11372254,1.530903987,Na1Li2N1,0.09080645,55.18679501,,0.71941718,-14.11912981,520,1.24E-05
mp-571016,108,21.23281284,4.290611057,K2Sn2Se4,0.093145078,244.3843831,,3.1691056,-29.67216541,520,2.01E-05
mp-571033,129,9.068907731,6.304108339,Ni2Se2,0.057423602,72.51742273,,4.78922722,-19.44829464,520,0.02320625
mp-571035,65,20.32825665,4.00011385,Os1Cl4,0,137.8382528,,0.69711761,-20.53809964,520,1.9998556
mp-571039,57,3.272179092,4.518631148,Ca4Al4Pd4,0,255.0060291,,4.67395191,-52.58118939,520,1.59E-05
mp-571053,167,0.4584144,4.120405007,Al10Mo2,0,186.0650135,,8.68506787,-62.07848646,520,1.25E-06
mp-571059,225,-8.029493641,7.546329119,Y1Cd3,0.02211517,93.7701213,,3.30421784,-10.32205456,520,3.20E-06
mp-571065,148,16.62072215,3.941194144,Ti2Br6,0.001839908,242.3306942,,1.92186973,-35.37959203,520,0.9996654
mp-571084,227,-0.200943331,4.189660549,Mn4Br8,0.005542252,340.4516306,,0.96617095,-59.40757065,520,4.999972275
mp-571093,156,-0.786928885,3.751108495,Ba1Al1Si1H1,0,85.61510186,,3.69449618,-16.21795795,520,1.00E-07
mp-571100,129,11.36085946,4.423021678,Cs2Ag2Br4,0.005012437,300.7814657,,0.14385575,-22.72462403,520,5.75E-05
mp-571102,225,7.362285912,6.050144424,Tl1I1,0,90.92613944,,1.81162724,-5.24882104,520,0.0001152
mp-571103,111,29.4006779,5.200053972,In5Ag1Se8,0,419.4855529,,2.94658293,-51.41660564,520,0.001659
mp-571122,164,5.538179191,5.06275031,Fe1I2,0,101.5638585,,,-11.7990937,520,4.0000003
mp-571126,225,4.449064044,9.698182876,Ti2B1Rh6,0,123.9607201,,6.82166609,-72.73628437,520,0.0005589
mp-571133,187,39.50021992,5.587609579,Nb4Se8,0.000205596,298.1647092,,2.69957489,-78.43462475,520,0.00959785
mp-571143,193,52.53339228,2.277426162,Ti2Cl6,0,224.9015123,,1.67198102,-39.75383996,520,0.25085525
mp-571160,140,11.35878266,14.23754055,Tl4Pt2,0,140.8554366,,7.02593216,-21.98003977,520,2.70E-05
mp-571163,123,2.277551601,10.07192885,Mn1Sb1Rh2,0.048248398,63.06351165,,8.00629047,-29.18275307,520,0.0023873
mp-571166,136,4.644652046,3.195267453,Ca2Br4,0.00049026,207.7563218,,-0.59640827,-22.83349662,520,0.00010765
mp-571172,191,12.93460222,8.070542148,In4Bi2,0.075716851,180.4933652,,6.4310536,-18.34962211,520,7.55E-05
mp-571195,144,44.88092833,5.424327958,Zn3Te3,0.003102357,177.256417,,2.85055351,-16.03572944,520,1.14E-05
mp-571210,164,14.93100774,5.048621071,Y2Ga2I2,0,187.8291987,,3.61767332,-28.38340479,520,1.97E-05
mp-571222,225,6.004348622,3.485262524,Cs1Br1,0,101.3921908,,-1.61363485,-6.10411465,520,0
mp-571262,227,2.561243992,7.485836008,Ca2Rh4,0,109.0882257,,4.70213609,-35.92217034,520,1.34E-05
mp-571263,191,8.623226423,6.764748725,K1In9Co2,0,292.1888188,,6.44172745,-40.84098012,520,3.20E-06
mp-571270,187,10.92017841,6.017903018,Nb4Se8,0.014114765,276.8452699,,3.56756439,-78.26771472,520,0.002245825
mp-571279,11,45.87945879,5.390175777,Zr4I8,0.000193136,425.1740134,,4.58110884,-57.08238244,520,6.00E-05
mp-571281,220,0.577361402,5.603619451,Ge6N8,0.063727424,162.3591182,,4.22538823,-94.11328377,520,0.00034405
mp-571292,191,123.6050508,4.692838741,Zn2I4,1.090914766,225.9075502,,2.12810259,-5.77976332,520,0.0001079
mp-571297,140,1.851845678,4.8661914,Ag2N6,0.358491149,102.29576,,1.84987941,-50.51037421,520,0
mp-571310,225,3.824116572,13.36488745,Zr1In1Pt2,0.036679289,74.07694116,,7.57017367,-26.63253263,520,6.04E-05
mp-571322,221,-26.37720256,8.37144704,Nb3Ge1,0.171013041,69.69470944,,5.30308487,-35.64262978,520,0.0003131
mp-571324,15,45.83350826,1.653344395,C6N6Cl6,0,370.4273568,,-1.57444185,-115.8223941,520,0.000120617
mp-571336,220,-31.19392298,7.998991826,La8Pb6,0,488.7673179,,7.2179588,-70.53325928,520,0.00043245
mp-571353,191,8.748521426,6.517644658,Ba1Sn5,0.007604387,186.2098742,,6.47178817,-23.77577463,520,2.67E-05
mp-571365,194,7.006241574,9.495011693,Co4Sn2,0.226371588,82.74751927,,8.34121693,-35.50228098,520,0.00201805
mp-571386,225,3.45584288,4.922879812,Cu1Cl1,0.173335645,33.39340197,,5.38241207,-6.35399991,520,0.0001435
mp-571414,156,0.057495278,1.090446341,K1Na1B2H8,0.008618846,139.7534405,,-3.4160803,-47.10150933,520,0
mp-571420,71,2.086956612,4.990560088,Ba1Ni2P4,0.000357866,125.9767966,,6.45770388,-39.69821301,520,1.76E-05
mp-571436,215,69.71799445,3.47911168,Sn1I4,0.019343074,298.9389224,,-0.59029999,-11.86615424,520,0.0001438
mp-571442,148,50.95024311,4.011727951,Y2I6,0,388.7706867,,0.32454865,-33.57114695,520,6.34E-05
mp-571454,187,2.232851257,3.367986971,Li1Ag1C2,0.490226918,68.4484926,,-0.59227524,-21.67372252,520,1.30E-06
mp-571461,166,5.509619737,2.353151845,K4Zn1As2,0,262.2574897,,0.29092483,-18.20842811,520,4.47E-05
mp-571465,62,35.86334157,6.245280131,Pb4I4Br4,0.037158719,440.3179444,,2.24557118,-36.6206738,520,0.001391225
mp-571467,225,-57.70851189,3.731732948,Cs2Na1Y1Br6,0,381.4042204,,-0.82071021,-37.86486639,520,0
mp-571486,63,7.284182146,5.809780519,Cu6Se6,0,244.3845605,,3.63183415,-47.06578724,520,0.000469283
mp-571499,51,8.403380276,19.15565826,Ta6Ir6,0,194.0903862,,7.62782175,-131.3503758,520,0.000260183
mp-571512,194,9.394071153,12.02728478,Te2Pt2,0.132389795,89.10230187,,7.87073059,-19.25099277,520,2.23E-05
mp-571520,148,-5.661591841,2.554261072,Si8,0.160873791,146.0682926,,7.13304745,-42.11594159,520,8.63E-07
mp-571547,7,14.88779341,8.957259902,Te8Au4,0.004419556,335.2990752,,5.97860164,-39.18292061,520,3.70E-06
mp-571550,166,9.838177727,5.728494678,Sb2Te1Se2,0.367161709,153.3546984,,4.66687716,-19.31295578,520,7.00E-07
mp-571558,143,81.37383272,5.884106927,Hg3Br6,0.041058156,305.1210437,,-0.87006779,-14.6122277,520,5.08E-05
mp-571584,216,7.139172843,8.270458553,Li1Mg1Sb1Pt1,0.080355846,69.88935749,,7.34949633,-16.12683552,520,6.00E-07