material_id,spacegroup.number,delta_volume,density,full_formula,e_above_hull,structure.lattice.volume,band_gap.optimize_structure_gap,efermi,final_energy,encut,total_magnetization
mp-777720,11,3.979732495,3.43309637,Li4V2O4F2,0.0509555,112.0415966,,3.04547445,-74.23819494,520,1.9999818
mp-777801,15,-1.906838247,3.045241493,Li2Fe2F8,0.053160911,151.3502069,,-2.45490376,-61.12903884,520,4.99990065
mp-777947,2,6.103501681,4.686203867,Ni6O2F10,0.070951597,203.4455347,,1.08612454,-76.95260343,520,6.9998703
mp-777964,12,5.792828343,5.785431956,Na4Bi2O6,0.033199449,173.9105465,,3.62075149,-58.99941153,520,0.0005536
mp-778022,2,6.408344134,2.679843746,Na6V2O6,0.065192723,208.0863581,,2.65787926,-75.18336832,520,2.00002045
mp-778023,166,-1.16678829,4.433267336,Li1Mn1Co3O8,0.037844141,137.342543,,1.51765568,-78.27249047,520,4.9980067
mp-778057,60,14.59628209,3.81422469,Na16Sn8O16,0,685.0328786,,2.7359449,-190.5474414,520,4.57E-05
mp-778079,123,0.155722025,5.166870947,Ba1Y1F5,0.039780149,103.2358726,,-0.43434327,-45.75797784,520,0.0001973
mp-778194,9,-3.33040629,4.602006539,Ge4N4O2,0.035108272,136.6047969,,1.48704464,-66.74404572,520,5.00E-06
mp-778241,166,5.24202302,3.06826709,Li2V3F8,0.086952142,172.4763059,,1.7366533,-75.99554804,520,8.9996674
mp-778336,1,1.788026384,3.142636364,Li1Mn1V1P2O8F2,0.000838883,180.0543693,,,-104.6061139,520,4.9999997
mp-778344,14,-0.419082171,2.707581894,Li4Mn2F8,0.034794873,177.6261932,,-0.35153801,-76.83699132,520,4.99984725
mp-778346,5,1.319608643,3.016625115,Li4Mn2F8,0.080722023,159.4289798,,-0.32675034,-76.19401122,520,5.0000883
mp-778349,2,0.66277994,3.154268999,V1Fe1P2O8F2,0.039850267,176.213773,,,-96.20789887,520,5.0000005
mp-778409,63,3.356351683,2.700302875,Li2V2F8,0.083590785,164.6530201,,-0.96068885,-67.73118303,520,2.00012435
mp-778410,8,2.203345072,3.422678092,Li3Fe3O1F7,0.173217643,163.6661577,,1.41972311,-73.52595238,520,11.9999812
mp-778411,1,1.904594815,4.179227828,V2Co1O6,0.09323271,102.0397445,,,-63.90526154,520,2.9999999
mp-778516,31,25.10446218,4.548421113,Fe6O10F2,0.113238638,194.6100103,,1.88454343,-110.0419241,520,13.03472185
mp-778547,227,1.908686191,3.009563993,Li4Mn2F8,0.052123876,159.8030365,,-0.92333974,-76.59438528,520,4.99995795
mp-778548,14,5.508928559,3.074932906,Li4Fe2F8,0.07258137,157.385396,,-0.10280013,-71.30785896,520,4.000031
mp-778554,7,20.15975388,2.914791314,Li4Mn2F8,0.029413755,164.9989357,,-0.40823268,-76.91232697,520,5.00032525
mp-778591,182,0.23514188,3.464936818,Li2Mn2F6,0.021468674,113.9387821,,0.25324795,-57.72886644,520,5.00000135
mp-778646,1,8.075243942,4.436485199,Fe6O7F5,0.081562621,202.8876746,,1.74878757,-108.5539462,520,28.9895422
mp-778681,8,4.764843748,4.319842693,V3Sn1O8,0.069285162,153.5784314,,2.93140867,-87.99123146,520,3.0003853
mp-778695,12,7.5754974,4.500570571,Li3Co3Ni1O8,0.072150443,141.7961825,,2.29761783,-81.47644146,520,9.9993667
mp-778696,1,4.464572738,4.282323478,Fe6O5F7,0.089952234,212.5173621,,2.84767163,-106.2756463,520,28.9999719
mp-778712,15,0.85143298,2.979808144,Li2Fe2F10,0.003850945,175.8479356,,-2.88159861,-65.06016763,520,3.9997461
mp-778716,14,-0.263705438,2.221975336,Cr4O12,0.064478408,298.913199,,-3.31359347,-105.3857501,520,0.000186525
mp-778717,148,6.934029994,4.063721088,Mg2Fe2O6,0.064455819,104.7291802,,2.74661536,-61.30811872,520,3.99911425
mp-778732,15,1.064865712,2.962173804,Li4Mn2F8,0.022127099,162.3596374,,-0.3032377,-77.01434016,520,4.9998101
mp-778746,92,4.925617432,4.09141315,V4O4F4,0,139.5171427,,2.51597439,-86.3857612,520,2.000164275
mp-778750,1,8.361663532,4.140938932,V6O7F5,0.030590098,205.5701522,,2.92637368,-130.7931107,520,11.0001944
mp-778766,166,2.1860805,5.115636137,Li2Fe3W1O8,0.074438135,160.1100064,,3.410612,-91.79596847,520,13.9999562
mp-778768,12,0.97992724,4.649578534,Li2Co3Ni1O8,0.028838864,134.7730596,,2.45614543,-76.85464288,520,7.0019095
mp-778784,1,11.54874023,4.465907787,Fe6O7F5,0.12413017,201.5509966,,1.78884913,-107.7877303,520,29.0014792
mp-778819,38,0.758610114,3.101052735,Li2Mn2F6,0.072627343,127.3085997,,-0.1786243,-57.21727975,520,5.00007255
mp-778848,166,-2.13454342,6.750814486,In6N2O6,0.040195439,199.9583526,,5.81500636,-77.74664045,520,0.00015155
mp-779083,160,3.884863836,4.393321324,Li2V3Sn1O8,0.088582814,156.2567854,,4.13872674,-96.74581185,520,5.0000472
mp-779166,166,3.664885346,4.399190183,Li1Co3Ni1O8,0.02919559,139.8239443,,1.41713105,-70.97494172,520,3.9992967
mp-779190,2,2.736700351,3.331501693,Li2V2F8,0.054305366,133.4572408,,0.21817626,-68.08260806,520,1.9999997
mp-779233,146,0.416727903,4.069754451,Fe3O3F3,0.079902736,111.1968963,,0.76313077,-53.94888766,520,5.000007
mp-779236,2,2.348913648,2.913446191,Li3V1P2H1O8,0.042174089,149.7363458,,4.0072542,-99.20069608,520,2.9996736
mp-779237,12,4.271207208,4.685461684,Mn6O10F2,0.052260977,186.9894866,,2.50839183,-125.2237054,520,9.99699185
mp-779242,38,16.02562659,4.602486334,Fe4O7F1,0.114240806,127.8552844,,1.97797281,-73.57793967,520,17.1936151
mp-779328,12,1.392434423,5.361459687,Na2Cu4O6,0.098526911,122.6977507,,4.31334626,-57.94758151,520,0.9449026
mp-779389,11,2.034558287,3.042760802,Cs2Cl2O6,0.034184742,236.1465067,,-1.01903086,-42.56542304,520,8.95E-05
mp-779435,176,-6.171420205,4.782740088,Ga6N2O6,0.068862713,188.2999449,,2.78846334,-84.022728,520,0.0003191
mp-779545,167,4.377929257,3.036730866,Na6Cu2O4,0.040352032,179.9185445,,1.81726844,-48.99240928,520,1.35E-06
mp-779664,26,-4.27269111,4.985150662,Ag2Ge2O6,0.087846804,152.2296211,,,-53.82966755,520,1.05E-06
mp-779704,70,0.720678022,7.808411679,Si2Hg4O8,0.028865896,209.7949412,,1.21368305,-70.40874706,520,0.00013565
mp-779897,5,10.39925596,4.364844703,Fe6O7F5,0.073619872,206.217684,,1.65789794,-108.6969156,520,29.0026453
mp-779923,26,14.34065211,4.190333691,Fe4O6F2,0.116669595,141.6193088,,1.09704072,-72.86274543,520,8.9996436
mp-779943,7,1.469056685,2.905759134,V2O2F6,0.021063083,141.6502463,,-3.04203119,-58.8959339,520,1.31E-05
mp-779948,161,1.359586212,5.072753885,Zr2Mn2O6,0.026882798,127.1146498,,2.93359551,-88.18356045,520,5.0000003
mp-779985,139,3.06000734,3.318162942,Li3Fe1O4,0.057989789,70.39459016,,1.0735988,-43.03228667,520,2.9643632
mp-779988,38,0.602235745,6.168372728,Sr1Li1La3Mn1O8,0.014932753,186.8829828,,5.44005032,-104.7647786,520,3.0000085
mp-780002,63,5.643207875,4.160127486,V4O6F2,0.001405859,134.8185483,,2.82913047,-89.89907217,520,3.000054
mp-780014,12,4.562889956,4.002449127,Li2Cr3Fe1O8,0.136194666,146.7476726,,2.25416577,-95.12373867,520,12.0000125
mp-780017,12,3.464424825,4.043787661,Li3Cr2Fe2O8,0.049250989,149.6782707,,2.51540706,-98.29451606,520,14.9999972
mp-780046,148,2.310856388,4.085741057,Li8W1O6,0.03838026,136.2997975,,2.08204703,-81.11283425,520,1.999984
mp-780098,74,-0.604001174,5.314570586,Li2Co2Sn2O8,0.072720615,155.3389003,,4.26182551,-82.21973073,520,3.99995865
mp-780215,63,4.698715933,3.915175057,Li2V2Ni2O8,0.008992755,153.1728937,,,-88.13008812,520,1.9999999
mp-780233,1,-0.158886282,3.427492071,Li7Ti14O28,0.098225707,565.2425955,,4.351861,-397.416821,520,0.994275514
mp-780260,148,0.830273986,3.933019848,Ti2Ge2O6,0.041306402,142.2873384,,2.44993453,-77.42099188,520,0.00037455
mp-780275,167,-0.718661656,5.035218793,Ag2B2O6,0.084006993,109.9353737,,1.28764676,-59.60036593,520,0.0004647
mp-780295,12,3.961536718,3.435365681,Li4V2O4F2,0.053500615,111.9675849,,3.06241288,-74.20765356,520,2.00000025
mp-780325,63,0.408694866,3.609090998,Li2Mn2Si2O8,0.051643113,141.6756478,,3.34493514,-100.2542609,520,3.99984375
mp-780537,12,-1.172037264,5.430661222,Co4Te1O8,0.079003547,150.2338774,,3.69884189,-75.73700006,520,14.000674
mp-780539,14,2.728948674,3.187471493,Li2V2F8,0.004790483,139.4876863,,-0.11984062,-68.67678665,520,1.9999948
mp-780542,2,2.409942803,4.004573142,Li2Mn3Cr1O8,0.077779089,148.7335773,,2.74178936,-96.77556036,520,13.0006757
mp-780544,12,1.934509813,3.866820415,Li1Mn3Cr1O8,0.054875468,151.051413,,1.43889105,-91.57579839,520,12.0002719
mp-780588,12,1.023525876,4.06788049,Li3Mn1Cr3O8,0.054165951,146.8503961,,2.86022411,-103.9179889,520,11.9999978
mp-780722,12,-0.010283375,5.437328114,Y6N2O5,0.087678572,195.8949823,,5.51652599,-115.4715302,520,0.0012369
mp-780750,74,0.545624551,3.854649886,Li2Mn2Si2O8,0.093130147,132.6502588,,3.95729831,-99.67344247,520,4.0000036
mp-780753,40,7.067397167,4.312411375,Fe4O4F4,0.061830187,139.9198806,,1.53711024,-72.1487208,520,4.999880425
mp-780811,119,1.953712784,4.462402352,Nb1V1O4,0.048805086,77.3429885,,2.68633688,-51.2967114,520,1.9902487
mp-780820,131,4.815270941,4.341401831,Cr2O2,0.08191867,52.01508024,,3.76681611,-31.21812579,520,3.9970821
mp-780821,12,1.836397646,3.986025745,Li3V1Cr3O8,0.047867791,148.2011106,,,-105.5744166,520,9.9999992
mp-780824,12,-0.343943202,3.10792571,Li4Fe2O2F6,0.075470437,152.5099547,,0.1484584,-74.36866925,520,5.0000032
mp-780834,15,4.264478077,3.072509244,Li4Fe2F8,0.021840119,157.509545,,0.1447978,-72.01823648,520,4.00002145
mp-780835,8,-0.227778728,2.684500041,Li5Fe1O3F2,0.088201966,109.2046455,,0.87272322,-57.21958904,520,5.0000814
mp-780873,166,4.072695667,4.109219797,Li2Cr3Cu1O8,0.067083227,146.0466791,,2.21553946,-92.12302611,520,5.0605152
mp-780876,160,0.306529699,2.2026383,Li6Fe1O3F3,0.09672745,152.6502409,,-0.77967387,-66.62263699,520,5.0000971
mp-780888,166,-0.555079601,4.509065384,Li1Co4O8,0.013082402,136.5050758,,1.32526897,-74.29807845,520,2.4064857
mp-781065,63,1.881376833,4.171250917,Fe4O2F6,0.081190963,147.0427028,,1.26846013,-69.03391539,520,9.0000186
mp-781081,4,1.495873773,2.829449234,V2O2F6,0.021817216,145.4705361,,-3.2181465,-58.88839257,520,1.91E-05
mp-781626,15,-0.961050764,4.463370029,Li4Nb2O6,0.100523296,115.1726867,,4.73465701,-84.67681586,520,0.003474
mp-781698,148,3.64017786,3.559363865,Na2Fe2O6,0.065633941,118.3419875,,0.70815813,-54.32253595,520,2.9992263
mp-781699,12,2.49842381,3.950464183,Li2Mn1Cr3O8,0.061992809,148.2975248,,2.03840775,-98.70648566,520,11.0000103
mp-781774,2,-2.825866086,3.018559816,Na6Ni2O6,0.001537828,193.2655392,,1.0375791,-59.26424393,520,3.0000201
mp-781959,36,1.994585106,3.99440285,Na2Co4O6,0.064664583,157.019734,,2.02199195,-66.32471534,520,7.00179625
mp-781963,164,-0.181750017,3.625191677,Li4Fe2O4F2,0.00177499,110.5967741,,1.78002327,-68.17666747,520,5.0003636
mp-782005,148,1.779353445,3.285753486,Li6Te1O6,0.056923802,134.0469887,,1.36290643,-67.11588288,520,3.30E-05
mp-782681,6,1.941927774,4.292860039,Fe4O4F4,0.075214609,140.5571296,,1.99573296,-71.98810773,520,5.000389125
mp-782682,10,3.185480189,4.276973558,Fe4O4F4,0.074442546,141.079218,,2.08531404,-71.99737249,520,5.00026605
mp-782685,6,5.351506943,3.598504763,Li3Fe3O4F4,0.082524613,151.517567,,1.2699761,-79.83176741,520,15.0004358
mp-782689,166,-0.02112458,4.185623952,Co2O4,0.018382864,72.1498775,,,-34.12121971,520,1
mp-782693,12,-0.413835512,3.347494261,Li4Co2O2F6,0.071956967,144.6591713,,0.19018088,-70.115713,520,4.00021425
mp-782695,12,0.509370544,2.941399891,Li4Co1O1F5,0.073639992,111.6032054,,0.30827973,-54.13208172,520,3.4575849
mp-782698,119,2.075932733,3.822297766,Li2Ti1Mn1O4,0.063633146,78.49569167,,4.29784761,-57.58969287,520,4.9385355
mp-782714,1,2.886623428,3.409386124,Li1V2O3F3,0.094001327,104.1396143,,1.19766742,-58.28199747,520,2.0000082
mp-782715,9,-0.432364229,3.208605387,Li4Co2O2F6,0.094625068,150.9209415,,-0.3747492,-69.79835959,520,3.99987625
mp-782719,63,3.204410845,2.83197008,Li2V2F8,0.05946051,156.9977829,,-0.79983004,-68.02074633,520,2.0000145
mp-783906,63,1.919553579,4.687291566,Mn4O6F2,0.054705519,125.3192843,,2.36255393,-82.75477292,520,7.0002704
mp-849057,164,16.4317705,5.68239696,Fe2S2,0.279900568,51.37901771,,,-26.1097051,520,0.9353001
mp-849059,58,23.40517567,4.493080498,Ni2S4,0.019040897,90.78539804,,7.45811881,-29.48443946,520,0.0055084
mp-849060,2,-20.68545961,1.903152177,V2S4,0.01899509,200.8044553,,0.08754014,-39.78441094,520,0.2561228
mp-849071,11,-1.899792694,4.155635865,Cr6S8,0,227.1639838,,6.28197085,-100.2665832,520,9.086764
mp-849075,191,53.82020573,4.827126605,Ni2S4,1.111877048,84.50288025,,8.30002723,-22.92742255,520,0.00072425
mp-849078,139,11.62648505,7.190903547,Ni2S1,0.379335153,34.51173373,,9.38853135,-15.47636955,520,0.0004014
mp-849079,194,15.68147008,3.814850374,Ni2S4,0.190665592,106.9258454,,5.82588647,-28.45469129,520,0.00042785
mp-849081,146,-1.924614563,3.95781193,Cr4S6,0,167.9810293,,5.61854505,-70.30732718,520,5.30920495
mp-849086,58,5.271763564,4.221842062,Cu2S4,0,100.4352978,,5.93727167,-25.31894058,520,6.40E-05
mp-849092,129,16.24355653,3.869449305,Ni2S4,0.29645792,105.4170941,,5.75261293,-27.81993732,520,0.00135025
mp-849098,47,-308.19328,0.674206931,V2S4,0.582298878,566.8310702,,-3.66243822,-36.40458821,520,7.68E-05
mp-849227,115,2.743056298,3.11526054,V3Cr1O10,0.080744216,194.458498,,0.64044482,-101.6374945,520,1.0024769
mp-849232,11,0.523711678,3.388365512,Li2Fe2F6,0.028257903,117.4025494,,0.34362095,-52.66085275,520,3.999973
mp-849244,8,-0.193584475,3.1310146,Li4Fe2O2F6,0.080630812,151.3853079,,0.17096517,-74.296424,520,4.99998935
mp-849352,8,5.703266725,3.829378956,V3Cr1O8,0.040040343,144.3193884,,2.69153867,-92.30969121,520,5.0003032
mp-849354,8,3.968688463,3.760959912,Ti1V3O8,0.029366218,145.1217535,,2.46061913,-96.53991722,520,2.9998353
mp-849388,12,5.249548063,4.257384712,V4O6F2,0.092267483,131.7387049,,3.28199269,-88.80873268,520,3.0000002
mp-849420,160,3.722240636,4.275128332,Li2Mn3Cu1O8,0.040172936,143.8070395,,2.44466687,-89.94874172,520,7.9981667
mp-849459,9,1.062063656,3.575157385,Li4Fe2O4F2,0.090732995,112.1445749,,1.86192013,-67.10917141,520,5.0000206
mp-849493,4,0.945110126,3.100180134,Li4Fe2F8,0.026339029,156.1036818,,0.22794032,-71.95525173,520,3.99998755
mp-849511,2,4.415021206,3.907897798,V5O10,0.048783472,176.2144422,,2.21579733,-115.8886074,520,0.99990994
mp-849524,160,-0.412617031,3.504609448,Li1Fe3O3F4,0.096149774,141.4187409,,-0.3393997,-63.41003851,520,14.9999411
mp-849525,8,-0.350960006,3.50551698,Li2Fe3O3F5,0.097076791,153.6694445,,0.0474175,-73.00536148,520,15.0000085
mp-849535,2,2.788005966,3.236592396,Cr2P2O8F2,0.038265921,170.298119,,0.63197573,-97.3483087,520,1.998593
mp-849597,59,-2.641278204,2.714222233,V4O10,0,222.5454032,,-2.85223098,-104.3735751,520,0.0001382
mp-849598,39,0.666119163,4.078801103,Co2O4,0.017773382,74.03946595,,,-34.1248766,520,1
mp-849680,119,0.833878184,4.771633164,Li2Cu1Ni1O4,0.018659747,69.6418607,,3.30959007,-39.630437,520,1.1871833
mp-849685,2,0.203803951,2.278268768,Na4Fe2O8,0.097966266,241.7222574,,-1.35434494,-70.14011329,520,2.0029533
mp-849964,8,5.874486344,3.772129736,Li2V3Cr1O8,0.069058614,152.6207401,,2.68598652,-101.3857395,520,6.9998992
mp-849983,12,3.720746502,2.764075911,Li2V2F8,0.033931435,160.8541292,,-0.69478493,-68.32709523,520,1.99994425
mp-850009,13,50.51641251,3.804287442,Fe4S8,0.401549684,209.4722592,,5.46299181,-68.11693737,520,2.5958327
mp-850049,61,-1.95345802,4.867246003,Co4S8,0.016185789,167.9399312,,8.03939113,-65.40049647,520,1.0170841
mp-850068,60,46.84809052,4.485064116,Ni4S8,0.093759108,181.8953268,,7.37815007,-58.07226039,520,0.0014368
mp-850099,115,-69.87329482,4.035039762,Cu2S4,0.534478952,105.0849533,,5.00132561,-22.11206687,520,0.00016295
mp-850117,74,3.18915976,3.441255635,Li2Sc2V2O8,0.037500388,161.0096666,,2.10952604,-107.169079,520,1.00000085
mp-850131,14,1.749471965,4.323292789,Ni2S4,0.019178318,94.35079265,,7.05000744,-29.48361493,520,2.19E-05
mp-850135,2,5.530989265,3.948500181,Li3V2Cr2O8,0.054566297,149.1660658,,3.32011673,-105.7074325,520,8.9999971
mp-850231,166,14.82565509,3.915532951,Li2Ti1Fe3O8,0.02946239,151.5185971,,1.7417963,-94.46666826,520,13.9998617
mp-850275,215,1.381523832,1.922152845,Li3Sb1S4,0.071490414,233.9800273,,-0.69643035,-32.60308196,520,0.0002869
mp-850283,15,-0.360465797,8.105753359,Hf2Nb2O8,0.123821373,137.4171586,,6.37622818,-114.2268764,520,1.0027138
mp-850358,74,-1.276452386,5.201235773,Li2Cu2Sb2O8,0.046905119,163.6165637,,4.61908587,-78.63079663,520,0.990033
mp-850479,166,3.66189757,4.510603056,Mn3Sn1O8,0.096244882,151.4972417,,1.55015417,-81.82524486,520,8.9997487
mp-850481,9,-0.270383529,2.631942819,Co2P2O8,0,194.2021867,,-1.16375728,-80.86242021,520,3.99951015
mp-850518,1,4.956707966,4.73128494,Mn4O7F1,0.062272325,123.1014555,,2.73269124,-83.7115155,520,12.9998755
mp-850814,61,24.84423631,3.789319542,Na8Sb8O16,0.003490669,619.6318813,,1.74167019,-171.0536071,520,0.000169675
mp-850878,38,6.964082623,4.39018803,Fe4O5F3,0.077898096,136.3067183,,1.76820318,-72.64195466,520,19.0000822
mp-850895,7,2.578500826,3.051442065,Li4V2O2F6,0.069601418,149.9961963,,1.17741365,-81.10603974,520,2.00000975
mp-850916,9,3.142038194,3.785975823,Li2Co2O2F4,0.101645522,105.1509521,,0.78282921,-50.72608896,520,4.000077
mp-850946,36,1.963560443,2.626486513,Li2V2O2F8,0.040445637,189.5110741,,-2.85212193,-78.22318714,520,0.00077705
mp-850968,74,3.108924046,4.724383581,Li2V2Sn2O8,0,169.1265101,,3.91582238,-93.25570236,520,2.00002205
mp-853130,161,2.351971675,4.932230568,Ti2Ni2O6,0.013978591,104.0707995,,3.76122635,-73.20146187,520,2.0000133
mp-853132,12,0.138448327,4.78319044,Co5Sn1O12,0.137719598,210.1606652,,1.23949601,-101.9502772,520,4.9550938
mp-853142,8,0.3640495,3.263954987,Li4Co2O1F7,0.036726435,149.8873942,,-0.34928098,-69.67417091,520,6.9994589
mp-853144,166,6.803248146,4.112673938,Li3Cr3Fe1O8,0.081882029,145.6171592,,3.01904337,-100.9513758,520,13.0000011
mp-853158,5,2.682677446,3.250537374,Li4Co2O2F6,0.102757483,148.9740588,,-0.16891356,-69.68450577,520,4.00000225
mp-853167,36,1.467140475,2.745435192,Na4V2O6,0.047329555,175.3048507,,1.74280977,-72.73133914,520,0.9999955
mp-853174,74,10.84237778,4.341177915,Li2Fe2Co2O8,0.031530576,142.0766412,,2.05992836,-83.11262474,520,6.0001341
mp-853210,63,2.57644966,4.040305383,Mn4O2F6,0.033963924,150.3173187,,1.2893972,-78.81349506,520,9.0007921
mp-853231,194,1.332695723,3.354665143,Li2Fe2O2F4,0.086918452,115.6129775,,-0.39913222,-55.17550448,520,4.9999937
mp-853247,15,-0.360523921,3.236727599,Fe2B2O6,0.092263293,117.6421366,,1.40204815,-72.92237513,520,5.00001955
mp-853248,74,5.551578732,3.92808292,Li2V2Cr2O8,0.084861279,147.0071911,,2.41982666,-100.910557,520,3.99999905
mp-861501,225,4.082091343,12.40963828,Ag1Hg1Pd2,0,69.75513652,,3.8149168,-14.07466612,520,3.00E-07
mp-861507,225,0.102322504,12.42446462,Sc1Al1Ir2,0,60.9943876,,8.44595398,-31.80533058,520,0.000104
mp-861604,225,5.838961125,6.72865963,Ca2Tl1Pb1,0,121.3543782,,5.09990072,-12.03765703,520,4.74E-05
mp-861606,4,3.762875932,4.070636122,K2La2Si2Se8,0,425.8223545,,,-69.04601377,520,0
mp-861610,194,1.25946472,11.35490633,Tc6Pd2,0,117.114668,,7.85872027,-73.1316198,520,2.06E-05
mp-861616,225,0.936123484,6.829488881,Li1Sc2Ir1,0,70.28516137,,4.79368841,-26.06921988,520,6.46E-05
mp-861617,225,6.735944605,12.7285086,La1Hg1Au2,0,95.68181745,,5.76002288,-14.27167771,520,3.55E-05
mp-861620,63,-37.6682907,6.707834604,La2Zn8,0,198.3098235,,4.29425043,-23.33427513,520,6.43E-05
mp-861624,225,2.056099062,8.882316984,Li1La1Hg2,0,102.2659753,,4.151657,-9.32450858,520,0.0002467
mp-861625,225,2.240308208,7.44544812,Li1Zn1Ag2,0,64.25116479,,2.62174826,-9.59994053,520,4.10E-06
mp-861626,194,2.729588001,11.42157144,Tc6Rh2,0,115.4091766,,7.9271534,-78.1121525,520,1.56E-05
mp-861627,225,0.415587794,5.652810823,Ti2Al1Mo1,0,64.23106478,,6.95233608,-31.66120834,520,2.47E-05
mp-861629,225,2.300774961,7.914598103,Li1Mn1Pd2,0,57.63801185,,3.94393715,-22.88542819,520,4.4753313
mp-861630,194,2.10404365,11.3867612,Tc6Ru2,0,115.2266474,,8.25889523,-81.09841705,520,2.65E-06
mp-861637,225,0.503029593,5.893568137,Ti2Al1Tc1,0,62.18758485,,7.42435515,-31.73575857,520,1.42E-05
mp-861639,225,0.937480897,10.03091992,Ti2Co1Ir1,0,57.42392051,,7.53687063,-34.3296809,520,1.5514799
mp-861640,225,0.404078507,8.247571738,Ti2Al1Re1,0,62.1974506,,7.20210913,-33.73194626,520,4.30E-06
mp-861641,225,1.307161595,9.912987361,Ti2Co1Re1,0,57.10033594,,6.57064354,-37.10877911,520,5.14E-05
mp-861643,225,0,3.036121646,Ca1La1Mg2,0,124.4771739,,4.11048792,-10.56312568,520,6.28E-05
mp-861645,225,4.126443201,4.311450097,Ca2Mg1Tl1,0,118.9502385,,3.85905854,-9.11874411,520,0.0001084