material_id,spacegroup.number,delta_volume,density,full_formula,e_above_hull,structure.lattice.volume,band_gap.optimize_structure_gap,efermi,final_energy,encut,total_magnetization
mp-773306,12,0.926734469,4.351045989,Cr1Co5O12,0.067228396,205.5729706,,0.69264316,-106.6819329,520,6.9995511
mp-773308,119,0.822698921,4.175629963,Li2Mn1Cr1O4,0.024722167,73.4956022,,4.01669155,-53.88582097,520,7.0000611
mp-773309,10,0.48861874,4.436789831,Li2Cr1Cu1O4,0.060551273,72.3911423,,3.22257658,-47.45850023,520,4.7376383
mp-773317,216,4.105073382,4.933717305,Li1Fe5O8,0.416386651,139.394051,,3.58821809,-85.74768965,520,24.9999871
mp-773322,227,7.490171874,4.369726926,Al2Cr4O8,0.103124771,148.1820374,,6.8671035,-107.2035381,520,6.99998375
mp-773330,160,1.74217042,4.563233115,Li2Mn3Sn1O8,0.09685094,154.8015424,,3.67041266,-92.4002892,520,11.0000497
mp-773340,10,1.46360115,3.797436635,Li2Ti1Mn1O4,0.071502602,79.00958879,,4.13996605,-57.52673722,520,4.9999759
mp-773367,74,1.982317757,4.383651444,Li2Mn2Ni2O8,0.004114807,139.8312659,,2.55687959,-82.80416009,520,3.9999508
mp-773368,10,1.134198468,3.870573126,Li3Cr3Si1O8,0.056362024,142.8161009,,3.12195838,-105.7671985,520,8.9999172
mp-773377,9,4.428557087,2.903591262,Li2Fe2P2O8,0.016689904,180.4401755,,1.29026098,-95.43433731,520,3.99997885
mp-773439,8,-0.109063179,2.963259538,Li3Fe1O1F4,0.073626539,94.51355599,,-0.37105804,-46.74027201,520,4.9999173
mp-773450,119,0.711051914,3.965585885,Ti1Cr1O4,0.072595245,68.61460005,,2.13894574,-48.74042123,520,2.0000004
mp-773462,10,0.94045522,4.752126977,Mn1Te1O4,0.127553038,86.14712218,,3.5328558,-37.13680576,520,4.9707276
mp-773467,166,2.470629896,5.560431043,Li2Ni3W1O8,0.060261335,149.8542409,,2.34448756,-78.54039042,520,4.0002861
mp-773500,74,2.94571591,4.410848755,Li2Mn2Cu2O8,0.022000932,142.6227534,,2.58109541,-83.53758549,520,4.4564675
mp-773510,115,0.719620762,3.048922709,Ti1V2Cr1O10,0.094809398,197.0150167,,-0.44176083,-104.6731808,520,0.0002683
mp-773534,119,3.109980403,3.97725366,Ti1Fe1O4,0.087516505,70.02026071,,1.55232783,-45.30371663,520,3.9995467
mp-773543,38,1.821586892,4.556792135,Mn2O3F1,0.051305109,64.45411672,,2.21411262,-41.39778892,520,6.9998049
mp-773544,74,0.471772209,5.043833713,Li2Co2Sb2O8,0,165.6852478,,3.78100272,-83.3635424,520,2.99995805
mp-773564,74,-0.859529945,3.37402551,Li2Mn2F8,0.018517942,135.7090693,,-0.89258021,-65.31800493,520,4.00006315
mp-773565,9,1.178841926,2.515619748,Li8Fe2O6F2,0.103076813,198.8269363,,0.1826416,-95.14367233,520,4.99796545
mp-773569,1,0.078801829,3.363132575,Li1Fe3O2F6,0.089753752,158.2289712,,-0.87644834,-66.25178138,520,14.9995903
mp-773602,166,3.281341055,4.474281839,Mn1Co3O8,0.026748908,133.5075504,,0.82929717,-72.40287036,520,5.9981075
mp-773617,5,2.880259779,4.298384318,Fe6O5F7,0.090864269,211.7232946,,1.45464771,-106.2592297,520,29.0005861
mp-773720,74,1.696150364,4.629133127,Li2Mn2Sb2O8,0.024010475,177.6619101,,3.95598494,-90.16508058,520,5.00002755
mp-773736,2,4.113737174,4.511653855,Co6O2F10,0.036124337,211.8461247,,0.57611722,-92.69661724,520,9.9999241
mp-773751,6,-1.309314781,4.238058566,Fe6O4F8,0.074527009,215.9120826,,1.64660619,-105.1120623,520,14.0000166
mp-773758,14,3.507715088,4.1645834,Mn6O4F8,0.038666306,217.5516154,,1.83057826,-119.183144,520,13.0015511
mp-773769,12,0.76729668,4.563936384,Li2Mn1Co3O8,0.056614766,135.9357272,,2.31724781,-84.01246462,520,6.0003666
mp-773778,7,-0.773866015,3.692185756,Li2Co2Ge2O8,0.059521291,182.1570007,,-0.15022973,-83.71087244,520,4.00061135
mp-774016,166,8.08845082,4.052069908,Li2Nb1V3O8,0.010314287,158.8418669,,2.85623316,-107.0480059,520,5.9999891
mp-774019,12,1.884557097,4.455254609,Mn3Te1O8,0.071840684,156.6927538,,2.12054155,-80.18187175,520,11.0005089
mp-774020,74,2.095519476,3.681939682,Li2V2P2O8,0.092825266,137.8728753,,5.55988042,-99.1190615,520,3.0000104
mp-774070,1,0.914393015,3.145040949,Li3Si2Ni2O8,0.082923028,170.2101633,,1.64484128,-91.27362098,520,5.0001076
mp-774088,166,2.858275644,4.174268138,Li2Nb1Cr3O8,0.014857476,155.4504744,,2.20841814,-106.4144073,520,8.9999927
mp-774090,74,1.044177425,3.792531508,Li2Ti2Fe2O8,0.017849117,152.9396072,,2.13223386,-102.7031206,520,4.99999805
mp-774098,74,5.199135917,3.860886599,Li2V2Cr2O8,0.009285892,149.5657595,,2.47606044,-101.9686125,520,4.00000005
mp-774101,186,0.765181637,4.072441014,Li2Fe2O4,0.036758581,77.29706102,,2.43487853,-48.52333234,520,5.00005805
mp-774123,166,2.381909419,4.354875973,Li2Mn3Te1O8,0.011534345,165.5977624,,3.56982015,-91.32809245,520,13.0000442
mp-774143,119,0.622911933,5.134852244,Mn1Sb1O4,0.052420906,77.83758837,,4.14218503,-39.92835194,520,4.0000091
mp-774146,26,2.069687843,4.740222755,W2Br4O4,0.068140936,263.1843307,,-0.87385692,-53.88224208,520,0.00038715
mp-774147,156,-0.063606143,3.791187542,Fe1H1O2,0.07241863,38.91703626,,1.47141515,-23.94503191,520,5.0000299
mp-774149,146,0.589965942,5.688991584,Li2Cr1W1O6,0.072510948,100.9093467,,2.0571745,-67.52357072,520,2.0000202
mp-774150,227,1.640943604,4.008119865,Mn2Al4O8,0,143.2617226,,5.3145554,-106.6737232,520,5.0000106
mp-774153,119,0.685714269,5.19169432,Cr1Sb1O4,0.066701512,76.04440409,,3.67784408,-41.0288131,520,3.0000679
mp-774155,5,6.69616739,3.644145284,Li4Fe2O6,0,107.2884176,,1.96464707,-68.10801844,520,3.99988975
mp-774156,119,0.86341263,4.524615835,Nb1Fe1O4,0.059999457,78.0791121,,1.55745249,-47.95830777,520,4.9999677
mp-774160,10,-0.538451313,5.302374763,Ni1Te1O4,0.051662707,78.38336508,,3.39465336,-31.05466606,520,2.0003373
mp-774174,63,3.419532597,4.469837685,Na2Mn4O8,0.082043198,146.2690517,,3.18535706,-93.05058249,520,6.999745
mp-774191,160,-0.065966608,3.438210493,Fe3O1F7,0.111234895,152.8699796,,-1.5542995,-59.16670921,520,14.9999632
mp-774192,2,3.937100378,3.459861129,Li4V2O6,0.021653302,108.2961601,,2.62968463,-77.64439351,520,0.9999488
mp-774235,12,8.658499042,4.356165019,Li1Cr3O4,0.122023903,86.502916,,5.23437509,-58.16684052,520,10.99998
mp-774251,2,1.270053918,3.012535695,Li2Fe2P2O8,0.047173309,173.9147914,,1.6748786,-95.00756965,520,3.9999816
mp-774332,14,6.148384992,3.794022711,Na4Co4O6,0.016767762,185.4366579,,2.2667568,-71.76489933,520,5.99988245
mp-774411,164,1.282974617,3.426226791,Li2V1O2,0.102790061,46.92544275,,4.02839368,-29.95310855,520,3.0000037
mp-774415,166,7.431639265,3.985830864,Li2Cr3Fe1O8,0.062535468,147.3595128,,2.0396348,-96.15496744,520,12.0000042
mp-774520,148,-0.079116213,4.170297022,Ti2Al2O6,0.06582911,97.83082802,,7.71208783,-81.83640325,520,1.00130515
mp-774712,194,0.273819161,3.823037014,Li2Cu2S2,0.054417472,89.08707867,,5.02829416,-24.40970174,520,7.12E-05
mp-774736,9,-3.219785962,3.352952658,Li4Cu4S4,0.00500488,203.1541951,,,-49.41235459,520,0
mp-774873,194,0.322586989,3.68192401,Nb2S4,0.03918087,141.6460736,,3.19275101,-42.58009081,520,0.0003399
mp-774922,1,2.336926699,3.066022431,Ti3Te1O8,0.074048155,216.2022261,,-0.22037725,-96.01121542,520,0.0021513
mp-775006,12,1.863009031,4.092422605,Mn2Cr1O6,0.074529387,104.6326106,,1.02142303,-64.33829591,520,8.0001634
mp-775020,12,2.179669747,4.042924711,Mn4O2F6,0.072869874,150.2199312,,1.53875497,-78.34662365,520,8.9999473
mp-775023,166,3.296650653,4.430966649,Li2Fe3Sn1O8,0.016355923,160.4421074,,2.21599814,-86.38193903,520,13.9998631
mp-775027,160,2.747743709,4.245572138,Li2Mn3Co1O8,0.034841733,143.0040019,,2.16842586,-92.35461035,520,12.0025293
mp-775035,10,0.111824138,5.271150478,Li2Ni1Sn1O4,0.013322837,80.42027818,,4.55407283,-43.56335301,520,2.0004626
mp-775040,119,0.990464991,4.800476905,Li2Mn1Sn1O4,0.027898577,87.00624592,,5.22498701,-49.44443571,520,5.0000513
mp-775047,119,1.572085688,4.06547325,Li2V1Cr1O4,0.038226216,73.85462927,,3.89617201,-55.03498884,520,4.9999874
mp-775094,166,4.508855345,4.383755294,Li2Mn1Fe3O8,0.278513783,138.0135901,,2.6078976,-85.70286646,520,12.9972466
mp-775095,166,12.88656043,4.200148654,Li2Fe3Co1O8,0.02454075,145.6262525,,1.88872128,-84.75087593,520,14.9995807
mp-775106,160,7.877202251,3.800733755,Li2Mn1V3O8,0.032481293,152.7574631,,2.6469898,-101.2729917,520,8.0000389
mp-775112,10,0.203068558,5.160897418,Li2Co1Sn1O4,0.015647457,82.21546416,,4.29991257,-45.95928615,520,3.0000155
mp-775114,141,1.269277436,4.161768442,Na2Mn2O4,0.101682435,87.72109121,,3.138821,-49.9695546,520,4.00000095
mp-775117,64,6.603004905,4.24917416,Cr2Co4O12,0.098762737,207.7905256,,0.67401179,-111.3118081,520,3.99829105
mp-775122,123,-0.880349615,4.639519854,Li1La1Nb4O12,0.081854099,253.9258411,,1.71533571,-154.2627111,520,5.80E-06
mp-775175,74,4.93319544,3.893568269,Li2V2Fe2O8,0.033045175,151.5933183,,2.22760349,-95.52518679,520,6.00000585
mp-775196,160,4.844099471,3.957017416,Li2Mn1Cr3O8,0.095062081,148.0519286,,2.21540267,-98.24351585,520,11.0000001
mp-775205,2,0.643059485,2.940387837,Li3Mn1P2H1O8,0.038188696,150.6213567,,2.51460094,-99.15586281,520,4.9993555
mp-775209,160,2.365925021,4.687556987,Li2Mn1Nb3O8,0.109708047,168.4552131,,3.69888812,-112.5063085,520,7.9995309
mp-775228,7,-40.90731606,2.852524269,Li2Fe2Si2O8,0.022607921,180.3077992,,,-96.37797263,520,5
mp-775233,36,-1.232640441,4.087171564,Cs4Mn2O8,0.041939465,312.6302162,,0.7491977,-76.2216444,520,1.0009552
mp-775241,119,1.481353517,4.529122052,Li2Mn1Cu1O4,0.068727746,71.99397473,,3.47256447,-46.79862817,520,3.6525362
mp-775242,166,0.143565359,4.511864586,Li2Mn1Cu3O8,0.107816192,142.5976395,,2.46900819,-75.38567431,520,7.7342617
mp-775295,166,2.441120945,4.014500952,Li2Mn1Cr3O8,0.016890183,145.9319768,,2.10816201,-99.33792243,520,11.0000075
mp-775296,119,0.500959604,4.067115362,Ti1Mn1O4,0.055147931,68.10288849,,1.75049484,-47.96579046,520,2.9935715
mp-775319,160,1.790473707,4.26023434,Li2Mn3Ni1O8,0.082514155,142.4183668,,2.40367663,-89.44387737,520,11.0001093
mp-775320,148,-38.68042418,3.370582529,Li4V3O8,0.067914805,152.0257334,,1.83025807,-100.4439906,520,2.9999999
mp-775331,74,4.196842738,3.947542383,Li2V2O4,0.0310586,75.6173807,,,-55.22062578,520,2
mp-775528,72,2.306207518,2.951897179,Na4Mn2O4,0.035002169,149.5396558,,2.04144984,-53.8160919,520,4.9999973
mp-775531,9,0.645192631,4.00501185,Li2Mn2O4,0.043552513,77.84637471,,2.97805122,-52.62431398,520,3.99968995
mp-775621,65,0.531140633,4.265323977,Mn2O2F2,0.027701714,70.02609313,,1.42663669,-40.49186504,520,3.9999994
mp-775622,166,0.101907071,4.690390695,Li3Mn1Co3O8,0.02366552,134.7281823,,3.42824879,-89.60843657,520,15.0000826
mp-775652,148,0.214610072,3.260596531,Li2Ni2P2O8,0.085543879,163.5848749,,1.25504708,-86.62524452,520,1.999932
mp-775697,12,1.221567904,4.08324375,Li3Mn2Cr1O6,0.030330583,113.3359392,,3.73577697,-80.20599835,520,11.0000266
mp-775721,160,-2.164946452,4.697538148,Li2Fe1Co3O8,0.074894452,132.3902065,,3.47561744,-80.96513685,520,8.9726328
mp-775774,65,0.309371495,7.84322659,Ag2Bi2O6,0.027038747,154.4880409,,3.28607066,-49.26636985,520,0.3009018
mp-775777,63,-0.148411602,2.952911526,Li2Fe2F8,0.061703043,156.0825395,,-2.55285215,-61.02653326,520,4.99968315
mp-775808,156,2.493930595,2.728441958,Mg6O6,0.085876253,147.1763681,,1.52027269,-70.77773415,520,1.54E-05
mp-775825,10,1.7423958,3.998734245,Li2V1Cr1O4,0.006912452,75.08726545,,3.9562225,-55.28549895,520,5.0000009
mp-775909,136,0.473057485,5.118956223,Zr2O4,0.05255617,79.94452818,,1.83792261,-56.71197745,520,3.85E-06
mp-775935,12,0.837328569,4.410980573,Zr3O6,0.087141316,139.1637981,,0.30520192,-84.75669986,520,5.00E-07
mp-775983,148,1.543403571,3.986526902,Li6W1O6,0.035431677,133.9095631,,0.26812789,-74.96460915,520,3.80E-05
mp-775985,1,0.570346982,4.185300415,V2Ni1O6,0.087672768,101.7965519,,,-61.44259823,520,2
mp-775986,15,-0.280269467,3.868951438,Na2Ni2B2O6,0.056028096,120.5975664,,3.16467163,-72.69483505,520,1.99995025
mp-776015,160,0.408013662,3.817479535,Li2Ti3Ni1O8,0.054881255,149.7088257,,2.2711741,-105.2637626,520,2.0002322
mp-776039,15,1.783614202,3.318085758,Na2Mn2B2O6,0.023773079,136.8603267,,2.34805623,-85.07727249,520,4.99996675
mp-776081,4,-2.504406492,2.365977519,K4O2,0.088061143,132.221151,,0.51893281,-19.92200554,520,1.13E-05
mp-776083,148,2.898791224,6.592564598,Hf2Sn2O6,0.069154058,173.8974504,,3.32744286,-83.44712011,520,1.50E-06
mp-776092,5,4.326421686,2.476861209,Li3V2F9,0.078884834,196.8969491,,-1.24575944,-77.39024465,520,4.000112
mp-776115,166,1.159214392,4.19272441,Li2Nb1Fe3O8,0.037008707,159.3392847,,1.80102729,-96.80760995,520,14.9999267
mp-776136,12,1.739024911,4.00068436,Li2V1Cr1O4,0.006311293,75.05066451,,3.82309976,-55.29030822,520,5.0000023
mp-776150,65,1.14354525,5.052178632,Sc2Ag2O6,0.060590252,132.0116779,,1.5048149,-65.00190926,520,0.0003407
mp-776170,186,-0.088340128,3.761857554,Li4Ti8O16,0.040485327,294.2869103,,5.30398247,-228.712057,520,0.779540625
mp-776203,8,5.596111851,3.888473864,Li2V3Ni1O8,0.082276833,150.9143125,,3.35696437,-94.45364476,520,4.0011794
mp-776204,65,6.441842128,4.63793664,Li1V3O4,0.027598356,80.11479934,,5.71647936,-59.22483343,520,7.9999837
mp-776205,11,-0.042254647,10.61356453,Hf4N4O2,0.095208566,125.4741887,,4.35565375,-104.6413187,520,0.00015495
mp-776217,8,5.688815803,3.827955539,Mn1V3O8,0.054790588,145.6492475,,2.39356429,-91.45072967,520,5.9998736
mp-776218,74,5.583489331,3.85983605,Li2V4O8,0.067484309,148.6990691,,3.79256404,-101.6412733,520,3.0000006
mp-776230,65,0.001708438,3.334122924,Li1Fe1F4,0.012229778,69.11831694,,-1.84094616,-30.81010622,520,5.0000466
mp-776233,166,2.679029599,4.478074796,Li2Fe3Sb1O8,0.010499988,159.8852864,,2.7015199,-87.50692059,520,14.9997395
mp-776282,166,2.995769456,4.604979925,V3Zn2O8,0.046402308,148.4350599,,2.61067121,-87.57019245,520,3.0001691
mp-776320,148,0.904818864,5.674633268,Cu2As2O6,0.082262956,109.1290753,,5.3576064,-55.67591971,520,0.01575545
mp-776344,43,4.960463781,2.140082063,V4O10,0.026182313,282.2497752,,-3.22806942,-104.0070228,520,0.0007338
mp-776354,166,6.115518506,4.437741336,Mn3Sb1O8,0.095874832,155.125888,,2.68004309,-81.84554321,520,10.0009605
mp-776366,63,0.887139805,2.845279143,Li2Fe2F8,0.103885039,161.9868937,,-3.04006028,-60.5203493,520,4.9996211
mp-776485,8,5.531451729,4.045338283,Nb1V3O8,0.030926846,153.4078741,,2.28198602,-97.89724104,520,3.9997053
mp-776486,148,0.579955372,5.951289747,Mn2Ag2O6,0.068744849,117.6380333,,2.04245329,-58.03161607,520,1.98937435
mp-776493,15,2.703742009,2.846675694,Li2V2F8,0.070479625,156.1867495,,-0.72814876,-67.88851695,520,1.99998665
mp-776511,74,-0.824229218,4.79180962,Li2Co2Ni2O8,0,130.6896111,,3.24990362,-74.04350838,520,2.0000746
mp-776513,59,2.441923886,3.212309931,Li2V2F8,0.008709931,138.4091303,,0.08005159,-68.62975328,520,1.99998925
mp-776532,136,-0.134650979,9.18052367,Hf2O4,0.024836289,76.14486547,,2.29941234,-60.92763393,520,7.50E-07
mp-776563,38,0.258951677,2.604110253,Cr1O3,0.090125081,63.76244582,,-2.03364365,-26.24385084,520,8.14E-05
mp-776619,8,6.423843105,3.664376821,Li2Ti1V3O8,0.069312041,155.237501,,3.2893615,-105.1084683,520,5.0002536
mp-776626,13,2.552775211,3.205316382,Li2V2F8,0.015421222,138.7111195,,-0.07219577,-68.54921779,520,2.0001191
mp-776651,65,3.277292034,5.474779138,Mn3Ni1O4,0.108591874,87.2023307,,5.31221036,-56.56055195,520,17.0000827
mp-776661,115,1.952216595,3.310470331,Nb1V3O10,0.089341126,203.5124727,,-0.3002243,-108.7296145,520,0.0002703
mp-776672,8,7.30376327,3.970478177,Li2Nb1V3O8,0.093463655,162.1060035,,3.19907675,-105.8839148,520,5.9999484
mp-776687,65,0.568280776,2.719787793,Li5Fe1F8,0.042964455,148.0786599,,-2.17279132,-69.26189636,520,4.9995227
mp-776740,146,1.273555535,5.799179273,Li2Mn1W1O6,0.056569017,99.83440953,,1.79732515,-66.77627167,520,2.9639997
mp-776784,162,0.545984266,2.996189464,Li3Fe1F6,0.088383502,105.666131,,-2.32858702,-49.59899735,520,4.999954
mp-776791,13,-1.369614441,3.397292685,Li2Fe2F8,0.005491855,135.6662415,,-1.92826484,-61.70106751,520,5.00031595
mp-776827,13,0.26681472,3.23934795,Li2Fe2F8,0.079025749,142.2810816,,-2.01083559,-60.81866078,520,4.999821
mp-776864,8,4.923309189,3.902099126,V3Co1O8,0.04079721,144.5819104,,1.94449611,-87.57886131,520,3.998461
mp-776869,74,1.209145836,4.801333437,Li2Fe2Sb2O8,0.000459328,171.9173877,,3.72615545,-85.71754433,520,3.99984195
mp-776881,14,-0.392377831,3.323089051,Li2Fe2F8,0.006277569,138.6956302,,-1.86796297,-61.69163894,520,5.0001235
mp-776911,186,1.073767727,2.725790889,Mg4O4,0.091431721,98.21300664,,1.47350881,-47.14071235,520,5.86E-05
mp-776913,146,7.573569195,5.549777833,Li2Fe1W1O6,0.079983093,104.592236,,1.47367656,-63.95313409,520,3.9869601
mp-776922,143,-3.634186201,2.976952356,Rb6O3,0.002639864,312.8160901,,0.31452786,-28.83862403,520,3.71E-05
mp-776952,143,-33.44084329,2.505663475,Na6O3,0.07964258,123.2229884,,1.44688899,-32.94803928,520,1.19E-05
mp-776996,119,0.441241505,5.225408817,Li2Co1Sn1O4,0.027675139,81.20045562,,4.70681271,-45.86306469,520,2.999551
mp-776999,148,1.872663673,4.604219089,Cr4O6,0.059651385,109.6324862,,3.02980242,-78.79347984,520,6.0000335
mp-777005,65,0.263667454,3.117488442,Li2Fe1F4,0.223302661,77.61849674,,0.58083328,-34.59888044,520,3.9999665
mp-777007,4,4.112805685,5.018475435,Ni2I4O12,0,270.3323407,,3.04926191,-80.31534073,520,2.0000741
mp-777020,152,2.964958116,2.418349749,Li3Fe3F12,0.097728934,285.8754799,,-4.06296571,-90.89133384,520,5.001707533
mp-777076,10,-0.19059746,4.207001768,Li2Ti1Ni1O4,0.036790023,72.80002183,,3.66960518,-51.80674923,520,1.9998719
mp-777097,63,0.503881173,4.21579881,Cr2Ag2O8,0,176.3515961,,-0.38077138,-69.41323051,520,0.00041825
mp-777167,1,1.040767181,3.647438782,Li16Ti16O32,0.062507673,632.316928,,,-479.840166,520,0.000267138
mp-777219,15,4.268818996,2.582395085,Li2V2F8,0,172.1707984,,-1.07960313,-68.73427245,520,2.00001925
mp-777240,12,0.932857837,3.512680754,Li4Fe2O4F2,0.096263675,114.1391812,,1.6127718,-67.04280325,520,4.9999921
mp-777303,65,0.34926925,3.328500708,Li3Cr1O4,0.085552801,68.2557979,,1.76601509,-47.12554439,520,0.9995824
mp-777318,12,3.536586889,4.19532891,Li3V2Ni1O6,0.108992314,109.7950996,,4.3458879,-75.80292403,520,5.0028417
mp-777321,63,0.383793028,2.947113772,Li2Mn2F8,0.047977601,155.3675552,,-1.85863601,-64.96448903,520,3.99984725
mp-777322,2,-0.646174013,2.579084403,Li6Fe1O4F2,0.086215979,128.4383345,,0.43663668,-66.61275518,520,4.0005347
mp-777323,2,0.440847507,4.61390609,Li3Fe2Co2O8,0.093490947,136.1765424,,,-87.65166956,520,7.0000005
mp-777332,147,0.039695012,3.061700107,Li4Mn2F12,0.013461331,198.2976138,,-2.61689383,-91.20584773,520,3.0005514
mp-777389,11,5.187356426,3.235709166,Li2Fe2F6,0.098512678,122.9414416,,0.37356542,-51.958305,520,4.00009155
mp-777433,6,7.486229808,4.147817201,V6O7F5,0.028360951,205.229258,,3.10672473,-130.8332353,520,11.0000549
mp-777435,2,1.026448112,3.140084025,Mn1V1P2O8F2,0.007933243,176.5301828,,0.51666354,-98.32944011,520,3.9976291
mp-777448,13,3.587852515,2.863431526,Li4V2F8,0.035352364,163.3231395,,1.47827535,-76.76310598,520,3.00031415
mp-777469,63,6.826368253,3.640999023,V4O8,0.038755691,151.3052931,,2.1231063,-92.83121931,520,0.999912475
mp-777479,62,7.519181421,3.104693355,V4O8,0.038801492,177.4418152,,0.79889863,-92.83066969,520,1.00014035
mp-777522,36,3.472666119,3.399667481,Li2Fe2F6,0.019936371,117.0122525,,0.35936482,-52.74406807,520,4.0000022
mp-777546,129,2.228724546,4.257977781,Na2Sn2O2,0.08728096,122.999997,,3.91788207,-27.30414186,520,0.0002693
mp-777554,25,12.07687559,4.336992551,Cr6O6,0.152133387,156.2038869,,3.66773586,-92.81180077,520,3.999944183
mp-777556,12,2.620453107,2.698413161,Li2V2F8,0.074256044,164.7683276,,-1.06811692,-67.84319992,520,1.9995191
mp-777584,146,-47.89995442,3.052064086,Na7Nb1O6,0.092930737,190.3329322,,1.18690405,-72.55300921,520,6.45E-05
mp-777588,63,2.043580053,2.944628996,Li4Fe2F8,0.101576937,164.3499176,,-0.45330178,-70.90192102,520,3.99860255
mp-777595,12,-0.52632528,2.848820325,Li2Fe2F8,0.059570784,161.7855384,,-2.90572177,-61.05212036,520,5.00067455
mp-777606,15,6.021898888,3.87713719,Fe4O4F6,0.120681815,171.9019041,,-0.39023628,-78.29551594,520,8.9997351
mp-777635,1,0.923260495,3.16342186,Li1V1Fe1P2O8F2,0.003398602,179.3473864,,,-102.5993827,520,6.0000002
mp-777672,38,1.75543531,3.283863089,Li2Fe2F6,0.065933574,121.1386525,,0.40148276,-52.28409604,520,4.0000229
mp-777699,10,5.766775505,4.317684758,V6O10F2,0.032701564,193.69491,,3.6524753,-135.9754581,520,4.0002837