material_id,spacegroup.number,delta_volume,density,full_formula,e_above_hull,structure.lattice.volume,band_gap.optimize_structure_gap,efermi,final_energy,encut,total_magnetization
mp-7249,164,9.198265899,6.225392108,Ba3Nb2Zn1O9,0,215.3089647,,2.07907344,-111.6369037,520,0.000575
mp-7250,166,-48.63095859,8.885808912,Nb6Co7,0.004511594,181.2636463,,5.45893719,-112.4930482,520,1.6554084
mp-7251,225,7.215623776,5.840610097,Ba2Y1Nb1O6,0,157.0701947,,2.05688489,-80.4602128,520,2.00E-07
mp-7257,164,9.842258428,2.51731149,K3Na1P2O6F2,0.001459889,221.7903524,,0.02862127,-82.64339459,520,0
mp-7260,11,112.8530935,1.779250094,P8S10,0.017966425,530.5139365,,0.7778329,-87.2523492,520,0
mp-7263,129,16.22346247,4.214222522,Ca2Ga2N2,0,97.56842132,,3.58984612,-31.0757292,520,1.45E-06
mp-7275,212,7.699127217,4.139449193,Ba4Si8,0.014473859,310.4867031,,5.20897445,-55.2372792,520,6.25E-07
mp-7280,60,57.41155798,4.618014012,P8Pd8S8,0,487.4699631,,3.7062,-128.0539171,520,0.000182813
mp-7285,166,-30.36201061,11.50021093,Hf3Ni9,0.000944078,153.5913549,,7.34301879,-88.32532988,520,0.000106767
mp-7288,194,3.322165567,3.715626552,Sc4S2O4,0,137.625529,,4.74163211,-83.72752812,520,1.12E-05
mp-7289,62,4.784282411,3.970605103,K8Te12,0,771.1699671,,2.61575405,-60.94588424,520,6.00E-07
mp-7297,164,-48.6339118,4.453979656,Cs2Sn1F6,0,185.8557016,,-2.09364239,-41.90081967,520,3.00E-05
mp-7323,155,-11.20312627,2.782579091,Rb1Be2B1O3F2,0,119.5304502,,-1.36939654,-59.37277433,520,8.39E-05
mp-7331,225,2.372651628,2.901470768,Cs2Mg1Fe1C6N6,0,287.3367007,,0.53217281,-122.3727878,520,9.00E-07
mp-7343,62,7.396491865,6.86778608,Y12Pt4,0,446.6298126,,3.88770612,-113.1293597,520,0.000441775
mp-7348,70,3.966274452,6.787662412,Sr2B4Rh4,0,154.1496245,,4.96790207,-65.03451582,520,5.00E-08
mp-7350,127,5.523964256,3.726417482,Li2Y4Si4,0.045075754,214.7173319,,4.11491593,-58.02062482,520,0.00012815
mp-7352,62,-0.649264694,4.410198037,Mg4Cu4P4,0,178.9608127,,7.30529777,-49.6282198,520,6.03E-05
mp-7359,194,8.518444317,6.164474622,Ba2Ag2As2,0,172.4612319,,3.32469118,-23.57726767,520,4.20E-06
mp-7373,61,23.33655576,6.241338336,Cd8As8,0.014848695,398.7261437,,2.68658679,-45.83597182,520,6.30E-06
mp-7374,141,5.808258552,5.771651079,Ba2Cu4O4,0,170.5623997,,3.10519539,-53.41169486,520,8.92E-05
mp-7375,160,3.648296871,4.368735304,K1Nb1O3,0,68.41838399,,1.14976593,-38.27625152,520,9.90E-06
mp-7378,62,10.25506028,4.941196937,Na4Cd4As4,0,282.7238093,,2.4581772,-32.1877422,520,5.90E-05
mp-7379,62,22.61044836,8.031301143,Tl4Cd4Sb4,0,362.6991559,,4.64163745,-30.58927398,520,8.25E-07
mp-7385,166,7.29917927,4.123432449,K2Be2Pb1F8,0.00312374,183.3964997,,-0.96483337,-67.12143324,520,0
mp-7390,164,2.951951906,4.939819007,Sr1Ge2,0,78.29022518,,3.48678313,-12.41962499,520,1.10E-05
mp-7392,63,3.763210555,4.242824941,Na4Ag2Sb2,0,215.7324028,,2.35726572,-22.11666857,520,1.45E-06
mp-7394,121,8.584741903,4.706043228,Ba1Ag2Ge1S4,0,195.4673614,,3.07018004,-34.89912158,520,2.26E-05
mp-7396,225,0.434524019,5.009352189,Li3Tl1,0,74.6531366,,2.60085598,-9.0038807,520,0.0004018
mp-7400,129,1.015903557,3.137343522,Na2Al2Ge2,0,129.7918841,,3.69448832,-20.5138344,520,1.15E-06
mp-7404,13,8.705271484,4.146618856,Na6Sb2O8,0,204.0139158,,2.51134443,-82.35630692,520,7.10E-05
mp-7420,194,14.2944351,5.507570001,K2Hg2As2,0,189.7105334,,1.49648819,-14.27148486,520,8.35E-05
mp-7421,194,5.945100016,3.621856621,K2Zn2As2,0,164.5281548,,1.48026879,-16.9198204,520,7.05E-05
mp-7424,58,3.19021399,9.523491335,B2Pd4,0,77.99266125,,5.27136981,-35.68017268,520,1.40E-05
mp-7429,164,3.580937565,5.250385294,Ca1Zn2Sb2,0,131.0673233,,4.50057536,-15.032689,520,6.90E-06
mp-7430,164,5.962002379,5.698260671,Ca1Cd2Sb2,0,148.1594661,,4.12357576,-14.40418285,520,2.00E-07
mp-7431,164,4.810550496,5.474347739,Sr1Zn2Sb2,0,140.1261539,,4.05181401,-14.89150738,520,1.53E-05
mp-7432,164,7.346483342,5.859374642,Sr1Cd2Sb2,0,157.558897,,3.63147569,-14.33974495,520,1.25E-05
mp-7433,129,0.227315897,4.78468807,Na2Cu2Se2,0,114.8715159,,3.87657837,-21.39096201,520,2.95E-05
mp-7434,129,1.070741375,5.173144443,Na2Cu2Te2,0.010034804,137.4718254,,4.79250017,-19.98369122,520,9.06E-05
mp-7435,194,5.023123776,4.037555131,K2Cu2Se2,0,149.3780371,,2.92493205,-21.4925024,520,1.21E-05
mp-7436,194,4.566609072,4.345356612,K2Cu2Te2,0,175.9715867,,3.49143124,-20.25538885,520,1.74E-05
mp-7437,194,3.390989856,2.993857865,K2Zn2P2,0,150.2887597,,1.98581428,-18.31606343,520,1.46E-05
mp-7438,194,7.480124389,3.855437476,K2Zn2Sb2,0,194.906901,,2.13570685,-15.42846579,520,0.00010795
mp-7439,166,0.642453339,3.251786262,K3Cu3P2,0,188.8810748,,2.35695473,-29.08288908,520,4.14E-05
mp-7440,19,3.703400694,2.052499669,Na8P8,0,349.2660263,,3.27988699,-59.96020222,520,9.12E-05
mp-7441,19,20.34800995,2.015920237,K8P8,0,461.753962,,2.33577561,-58.77120908,520,4.22E-05
mp-7446,36,18.74133666,2.75920547,Rb4S6,0,321.5279144,,1.44263821,-36.55298884,520,0
mp-7447,36,18.32001264,3.777498303,Rb4Se6,0,358.5408494,,0.90077317,-32.83668335,520,0.0076733
mp-7449,36,29.37067662,4.092482946,Cs4Se6,0,407.9371286,,1.2570853,-32.72895109,520,0
mp-7456,19,14.31899631,4.492741839,Sn4F8,0.000234474,231.6783641,,1.73053615,-58.46127626,520,0
mp-7457,92,13.7438291,4.480943899,Sn4F8,0,232.2883533,,1.73106795,-58.46408995,520,0
mp-7459,11,41.19749524,6.763599983,Te8Mo4,0.016043806,344.8351056,,5.92637535,-71.64276223,520,2.85E-05
mp-7461,13,23.87378169,6.440573683,Hg4S2O8,0,256.402858,,-0.28566825,-62.3889629,520,2.07E-05
mp-7462,13,28.44205742,6.547849343,Hg4Se2O8,0.016073304,275.9873298,,-0.60258995,-55.05737785,520,5.00E-08
mp-7466,59,11.89405658,4.689781082,Ca2Cu4O6,0.034659558,152.3718016,,3.72896932,-66.58785282,520,5.85E-06
mp-7473,225,-4.951502311,5.732949946,Li1Cu2Si1,0,46.95734323,,6.9847591,-16.43722657,520,1.67E-05
mp-7479,166,5.674660664,6.866047824,Rb1Yb1O2,0.174720566,70.25840236,,0.26192712,-20.0405589,520,1.0008832
mp-7480,166,2.168516496,7.349331331,Rb1Lu1O2,0,66.07368583,,1.29611339,-26.44413578,520,1.90E-06
mp-7482,221,9.640123866,5.756701253,Rb1Hg1F3,0,98.95474687,,-1.23241759,-16.79032017,520,0.0001114
mp-7486,129,0.839913303,4.926775489,Ba2Ni2S4,0.035171514,175.364149,,4.35245207,-41.45269734,520,5.70E-06
mp-7487,129,27.70861791,5.689559664,Ba2O2,0.13316519,89.49883227,,1.59879097,-23.1216293,520,5.50E-07
mp-7492,11,2.557942563,5.00776473,La2B2O6,0.007172964,131.1215466,,4.30791321,-83.92618755,520,1.25E-06
mp-7493,11,31.38217075,5.407818797,Ca2Sb4,0,174.1646931,,6.25960412,-24.20718084,520,6.50E-07
mp-7502,166,8.251119935,3.841157549,K2Sn2O3,0.008235799,157.1913058,,3.06405471,-35.20201528,520,5.63E-05
mp-7534,14,13.26011769,4.339557566,K4Cd4O6,0,268.634344,,0.25572045,-53.59962578,520,1.75E-05
mp-7541,166,49.23460237,4.052568587,Sn2P6,0.007930318,173.4317408,,6.75624823,-40.53062536,520,0.000177
mp-7542,166,4.640211584,3.736778382,Ge2P6,0.026572183,147.1433148,,6.20122415,-41.49168103,520,7.65E-06
mp-7543,164,2.740804376,3.191616589,Li1V1S2,0.026773896,63.48084551,,5.12331861,-23.59572556,520,1.11E-05
mp-7544,189,3.251702336,7.555573576,Zr3Si3Ru3,0,145.3028389,,7.39298406,-78.1842393,520,1.47E-06
mp-7548,113,11.48483234,5.25009568,Ba2Se6,0.004225005,236.7139079,,2.59011845,-33.08609392,520,0
mp-7554,216,8.048001613,7.619969634,Li1Mg1Sn1Au1,0.069244991,75.60115031,,6.25651852,-12.41867052,520,6.80E-06
mp-7555,216,3.207942582,6.137842157,Li1Mg1Sn1Pd1,0,69.36026473,,5.88823652,-15.04640582,520,0.000227
mp-7558,180,-14.92091722,10.98547288,Ta3Ge6,0,147.9355882,,6.07141217,-65.30834324,520,0.0002555
mp-7559,191,27.49602702,7.449817838,Y2Ni8B2,0,149.1135657,,6.7753759,-78.31983761,520,8.95E-05
mp-7560,167,0.43560214,6.840115571,Lu2B2O6,0,113.5052479,,1.40950477,-83.64963531,520,9.08E-05
mp-7561,223,10.0828646,7.524500926,Sr2Pd6O8,0,207.8305646,,3.8387167,-92.12137764,520,8.50E-07
mp-7562,217,15.44530808,6.353805431,Ta1Tl3S4,0,241.0541398,,2.00617888,-40.96240717,520,0.0003058
mp-7564,176,1.373769848,7.029281582,Nb6Te8,0,372.8298899,,6.10484517,-92.22797951,520,9.55E-06
mp-7565,62,5.578259181,9.815873708,Sb4Ru4,0.05132389,150.7834861,,8.81513851,-54.72460351,520,5.00E-07
mp-7566,63,11.1556394,4.579011694,In2P2O8,0,152.1566002,,3.19257009,-80.07349752,520,3.85E-06
mp-7569,166,10.70971838,3.063253749,K1As1F6,0,123.6006115,,-3.1989336,-36.40446751,520,0.000791
mp-7572,63,5.178128988,2.891904105,Mg2S2O8,0,138.230793,,1.81349159,-74.41597386,520,1.50E-07
mp-7575,216,1.059598698,4.770475644,Li1Zn1N1,0,30.0596172,,2.55468449,-12.300766,520,0
mp-7576,198,-1.305189667,5.466413478,Cr4Si4,0.06867612,97.30593833,,9.11181094,-62.61747134,520,0.00125605
mp-7577,198,-0.283453834,6.633922194,Co4Si4,0,87.12670184,,9.65318387,-55.05849997,520,1.25E-06
mp-7580,199,26.71029117,7.887313991,Hg6S4F4,0,296.3868634,,0.10627688,-36.48808145,520,0.00045075
mp-7581,160,9.944818814,5.96989552,Mo1Se2,0.000134728,70.61169485,,3.66580613,-19.85102046,520,2.97E-05
mp-7582,122,15.02598438,2.982233434,Ge2S4,0.020686238,152.309958,,1.11238409,-27.63647219,520,7.78E-05
mp-7583,122,10.890778,2.204184201,Si2S4,0.051718422,138.9425056,,2.46233974,-31.12405084,520,0
mp-7586,167,-12.06552592,7.986647882,Ni6C2,0.060457237,78.21361029,,7.97430929,-52.65373357,520,5.35E-05
mp-7590,107,1.440128124,4.715296215,Ge1P1,0.058967761,36.48862957,,5.6185499,-9.91460503,520,0.0001706
mp-7592,225,2.028643588,6.62422278,Ag1F1,0,31.80251548,,-0.10493493,-6.64103403,520,2.53E-05
mp-7595,19,14.05882573,3.421302106,Ge4F8,0,214.7915976,,-1.15384552,-58.75884572,520,3.83E-06
mp-7596,14,5.568581201,6.119908679,Nb4N4O4,0,133.4013184,,4.01564958,-113.0678061,520,7.50E-08
mp-7597,160,8.685203874,5.662443824,Nb1Se2,0.000177388,73.55604916,,2.83080092,-19.60874081,520,0.3830017
mp-7599,136,-3.623350289,2.854584689,Be4O4,0.011832025,58.19789971,,2.21988719,-56.72994552,520,0
mp-7604,221,2.441699811,3.08840436,Mg3N1F3,0,77.37964951,,2.98954133,-36.66018807,520,0
mp-7607,167,4.755999653,8.319374478,Ti2Hg2O6,0.102608391,118.3443382,,2.86134507,-64.47456211,520,3.00E-07
mp-7608,71,2.055419161,4.675216702,Li2Pd1O2,0,54.09405388,,1.88079515,-25.66225253,520,1.50E-06
mp-7609,62,16.62947719,4.819333025,Sb4O4F4,0.001059433,216.0485284,,2.58821672,-65.73503176,520,3.91E-05
mp-7610,121,2.784197718,2.840012248,Li2Ca1Si1O4,0,85.39057157,,1.99029933,-52.53398197,520,9.60E-06
mp-7611,121,3.747654314,3.481783332,Li2Ca1Ge1O4,0,90.90018692,,0.93529139,-48.31870141,520,1.00E-06
mp-7615,139,39.22122786,3.972313003,Rb3Tl1F6,0.056105239,240.2730714,,-2.11302349,-40.2927091,520,0.0008575
mp-7617,139,46.60166694,3.07232732,Rb3Y1F6,0.055966239,248.2434169,,-2.99358835,-52.96735261,520,1.89E-05
mp-7618,139,37.95013117,3.698789507,Cs3Y1F6,0.050829954,270.0887003,,-2.42758758,-52.86539585,520,0.0002882
mp-7622,2,16.05022766,2.267631175,K2S2O8,0.156299383,197.9510192,,-0.85354646,-67.83802451,520,1.10E-06
mp-7631,186,1.618622409,3.171631743,Si6C6,0,125.9565628,,8.00778845,-90.36445225,520,3.82E-06
mp-7632,189,1.220180155,8.299221603,Ni3Mo3P3,0,111.4109082,,10.39788462,-71.13341732,520,6.09E-05
mp-7639,63,-2.060994874,2.947476829,Na4Cu2P2,0,158.3079951,,3.03393706,-27.25306519,520,0.00012575
mp-7642,63,8.834151914,3.499176176,K4Ag2As2,0,247.702936,,1.06729841,-22.61804623,520,6.75E-06
mp-7643,63,10.87185055,3.617115808,K4Ag2Sb2,0,282.6313146,,1.44175347,-21.63377794,520,3.63E-05
mp-7644,141,4.078498559,6.75046261,Lu2As2O8,0,154.4250578,,1.29857668,-86.71153744,520,1.50E-06
mp-7645,164,-25.80200922,2.468667075,K1Al1S2O8,0,173.6805871,,0.37869218,-75.10434128,520,0.0001414
mp-7648,20,9.935636483,2.059453979,Si4O8,0.007354953,193.7840357,,-0.86894329,-94.89566476,520,9.25E-07
mp-7650,194,3.347041621,4.481048397,Rb2Sc2O4,0,120.3775984,,2.05533059,-55.6734084,520,3.61E-05
mp-7655,164,1.978335142,4.141738969,Ba1Si2,0.017027735,77.57876234,,5.01744773,-13.80165817,520,1.18E-05
mp-7657,12,23.54556125,3.228343664,K6Si2Te6,0,543.3524219,,1.62854518,-47.81618071,520,1.48E-05
mp-7667,36,14.2360115,2.032253484,K4S6,0,284.98813,,1.65714487,-37.12165337,520,2.40E-05
mp-7670,36,11.20568859,3.268849604,K4Se6,0,320.110778,,1.03684215,-33.37822612,520,1.40E-05
mp-7684,160,20.82384718,6.971300744,Tl3As1Se3,0,220.3201572,,2.89784745,-24.43102563,520,0.0004006
mp-7700,221,0.181696843,2.185428571,Si1B6,0.476534243,70.62669384,,5.37267979,-42.32395334,520,2.57E-05
mp-7701,191,-4.279743851,4.209300851,Ba1Si2,0.036119552,76.33357522,,5.07042331,-13.74438272,520,1.10E-06
mp-7704,164,0.72911272,2.347097431,Ca1Al2Si2,0,106.2729715,,5.44082242,-21.84721925,520,1.90E-06
mp-7705,187,3.405716653,7.616653294,Nb3Fe3B3,0.416427441,104.3606231,,6.03966072,-76.85030881,520,1.75E-05
mp-7708,164,15.35693779,6.749751041,Tl1Cd1S2,0.16787278,93.71303735,,3.73808606,-12.65860743,520,0.0004525
mp-7709,60,7.648850352,4.752236362,Zn4F8,0.005717129,144.5293251,,-1.74528487,-47.79559457,520,2.92E-05
mp-7711,164,4.285647541,8.614876693,Ag2O1,0.116110992,44.66765533,,2.02811485,-10.53683713,520,0.0022491
mp-7715,14,25.05062538,5.061926628,Ag2F4,0,95.70053282,,-1.42085702,-20.0750621,520,7.20E-06
mp-7723,123,4.507525982,2.59252149,Na1Al1F4,0.103579788,80.68194198,,-1.49046592,-31.92539659,520,4.00E-07
mp-7738,194,2.321483028,6.125473438,La2Se2F2,0,128.4216518,,5.37880572,-38.63494217,520,3.55E-06
mp-7744,12,13.62133723,2.004142966,Li2S2O6F2,0,175.6575892,,-1.71222241,-67.20574641,520,1.00E-07
mp-7748,166,1.348085946,3.485223859,Na1Al1O2,0.064990217,39.0547551,,3.94905492,-25.06543259,520,0
mp-7752,221,3.520817747,4.664478589,Sr3Sb1N1,0,141.9097944,,3.63327992,-22.13855443,520,1.15E-05
mp-7753,221,2.715240436,9.077192974,Mg1Pd3,0.008531386,62.8501671,,4.52946022,-19.07053184,520,6.90E-06
mp-7755,221,11.99239519,5.790871955,Se1,0.180384861,22.64186872,,4.69790131,-3.30911455,520,3.04E-05
mp-7759,194,12.72019944,6.222718018,Ba2Sn6,0,263.3590694,,5.77610428,-31.60521212,520,4.55E-06
mp-7760,187,24.35806236,4.793270493,Al1Sn1,0.199195663,50.47211252,,6.39851889,-7.3591093,520,2.50E-05
mp-7767,140,-0.759139911,4.756823173,Rb2Ag2F6,0,174.7741008,,-0.6479042,-37.63643977,520,7.25E-06
mp-7770,164,3.101532076,5.301563238,Sr1Zn2As2,0,115.3518845,,3.22620805,-16.87391355,520,8.90E-06
mp-7771,164,5.691057943,5.772362804,Sr1Cd2As2,0,132.9858583,,2.78869663,-15.98838955,520,1.30E-06
mp-7773,63,4.030340753,5.67056588,Na4As2Au2,0,186.1654548,,2.31627412,-25.08372086,520,3.19E-05
mp-7774,63,6.548228249,5.727520022,Na4Sb2Au2,0,211.4732825,,2.95557901,-23.7598145,520,2.39E-05
mp-7783,131,1.625072885,5.222408922,La2B4C4,0.12713672,117.3598652,,8.57915543,-76.61563084,520,1.40E-05
mp-7784,11,22.0902822,4.373809193,Sb2As2O8,0.010888003,197.9363843,,1.76959648,-72.36586275,520,0
mp-7785,123,-0.426343511,5.256659386,Cs1Cu4S3,0.052930996,152.6659121,,4.8134787,-32.90641213,520,5.06E-05
mp-7786,164,1.913434028,3.866353877,Cs1Cu3S2,0,166.4997365,,1.9449481,-24.70638033,520,2.11E-05
mp-7787,198,1.575739591,8.131532588,Hf4S4O4,0.006851371,185.058559,,4.39786319,-106.9104666,520,1.90E-06
mp-7794,160,5.307208769,3.513814173,K1Sn1S2,0.108695698,104.8823852,,4.13963923,-16.15474199,520,0.0007496
mp-7795,160,2.180597009,4.018655471,Rb1Sn1S2,0.121567038,110.8668259,,4.05589724,-15.9064298,520,0.0004354
mp-7801,122,3.115119302,4.310538564,Ca2Ge2N4,0,108.427279,,3.58177455,-51.65717407,520,1.00E-07
mp-7804,191,-0.062947309,10.17207455,Hf1Co3B2,0.016272096,61.52888465,,6.52410759,-48.1188974,520,0.0005949
mp-7808,12,6.164963268,3.767180607,Ba2P6,0,202.9827118,,4.19911843,-41.63429109,520,1.50E-07
mp-7811,216,2.833714944,3.237398857,Sr1S1O4,0.216949163,94.21518377,,1.18031899,-37.65145712,520,1.77E-05
mp-7812,92,12.91308413,3.683087219,Ge4O8,0.000645537,188.7077901,,-1.40071602,-77.47672328,520,3.88E-06
mp-7814,166,10.63865499,8.080858887,Ta2C1S2,0,90.01229362,,4.7648292,-45.88388223,520,9.02E-05
mp-7817,225,0.024187666,3.441525975,Y1B12,0,105.4929378,,6.18109285,-89.78228693,520,3.40E-06
mp-7818,114,8.167787514,10.29633433,Pd8Se2,0,162.7714086,,5.09284881,-50.0323252,520,2.40E-06
mp-7819,114,6.796655882,9.93341026,Pd8S2,0,153.0397765,,5.54807898,-51.48868059,520,4.10E-06
mp-7821,194,-3.018806801,6.911122121,V2Sb2,0.138731927,82.99016513,,7.37190696,-26.43973381,520,0.00141185
mp-7824,164,7.174406627,4.327652238,K2Re1F6,0,145.1914356,,0.63133164,-48.29800323,520,3.0000006
mp-7825,164,8.968319217,3.212549068,K2Ge1F6,0.00350524,136.8868132,,-2.85773951,-42.83401339,520,0.0008757
mp-7826,152,13.24978471,9.858820965,Hg3O3,0.00111697,109.4416327,,0.23002537,-17.48397881,520,0
mp-7829,189,-1.640753859,7.009998471,Mn3Nb3Si3,0,125.0236401,,7.49305111,-79.04928016,520,0.0003627
mp-7831,227,-2.629691565,5.679937933,Mg2In4O8,0.027050396,185.8997277,,4.06997057,-80.09900299,520,0
mp-7834,160,11.68633575,7.759002154,Ta1Se2,0.00023633,72.52264311,,3.01167904,-21.28200469,520,0.1868263
mp-7839,194,10.97776621,11.09932565,Re2B6,1.066818515,65.42023669,,9.77324103,-59.00242798,520,5.80E-06
mp-7841,66,20.55355112,4.621272172,Ba2Ga4Se8,0,425.8814394,,1.06283779,-59.20653482,520,5.08E-05
mp-7844,224,13.60860039,3.074934968,Mg6As4,0.165147824,240.5896004,,2.79347588,-32.84483436,520,5.16E-05
mp-7845,224,15.15929184,5.439767177,Zn6As4,0.159353116,211.2822328,,2.43962439,-26.0905712,520,3.50E-07
mp-7846,224,3.536392259,4.590354571,Zn6P4,0.183816467,186.7868243,,3.30017567,-29.27866464,520,1.16E-05
mp-7848,82,18.6562557,2.103307944,Al1P1O4,0,96.28050568,,-0.90333189,-44.91702719,520,4.51E-05
mp-7849,82,22.23047403,2.702322198,Al1As1O4,0,101.943674,,-1.4660137,-40.09443865,520,7.33E-05
mp-7851,166,-2.209696709,12.34903256,Ta3Co9,0.000927361,144.315831,,5.79953566,-102.3193204,520,0.0015426
mp-7853,164,20.45282871,5.873123903,Na1Tl3S2O6,0.094474142,225.1324706,,2.51829257,-61.06304801,520,0.0002056
mp-7857,62,13.38059077,4.575879376,Ti4B4,0,85.17454398,,6.73602484,-64.95689224,520,2.81E-05
mp-7859,129,-6.883757812,5.636888385,Zr2S2,0.002262857,72.63801719,,7.30856368,-31.08724032,520,2.30E-06
mp-7861,160,2.449072263,5.833854176,Cr1Cu1Se2,0.247843994,77.8378203,,4.56820747,-21.40260366,520,3.0005789
mp-7863,166,11.18035858,4.389300439,Rb2Sn2O3,0,172.6455757,,2.95482689,-34.80327132,520,2.60E-06
mp-7868,186,12.56610893,9.218503407,Pt2O4,0.005574862,81.80934325,,2.1925037,-34.65446229,520,0.000158
mp-7874,186,4.04721194,4.658536183,Li2Ga2Ge2,0,106.4390663,,3.31311839,-20.73288737,520,1.94E-05
mp-7885,156,2.310689431,4.41287225,Al1Ag1S2,0.070173089,74.87495794,,4.1388877,-17.59852636,520,5.66E-05
mp-7886,225,-202.0646849,3.882036522,Cs2Rb1Y1F6,0,237.0480474,,-2.56663198,-53.76698752,520,0.0001834
mp-7889,225,8.183909283,6.219271846,Sr2Y1Re1O6,0.083374282,145.874675,,4.75367215,-77.79819816,520,7.52E-05
mp-7891,164,2.33168037,3.41150129,Mg3As2,0.018819724,108.4269523,,3.91451807,-17.15405768,520,0.0010178
mp-7897,194,7.602859498,1.700968423,K6P2,0.010181621,289.4890915,,0.78778794,-19.15110866,520,8.95E-06
mp-7898,194,20.18788026,3.051968811,Rb6As2,0,360.5397902,,0.84300104,-17.20402278,520,1.02E-05
mp-7899,62,14.05620687,6.593263728,Ba4Cd4O8,0,283.8260229,,1.71170639,-79.78364722,520,0.000185725
mp-7904,14,4.538032781,3.715975647,Cd2P8,0.010780939,211.1937512,,4.98689706,-45.75676981,520,4.78E-05
mp-7914,166,1.047962671,3.448480291,Na1Sc1O2,0,48.12604365,,2.04798412,-28.95868309,520,0
mp-7915,129,-17.22137964,5.54543391,Zr2Si2O2,0.25201431,81.03449236,,7.96740343,-48.4329342,520,4.70E-06
mp-7916,129,1.222502296,7.898133307,Hf2Si2S2,0,100.3457023,,8.11291163,-45.90676759,520,5.00E-08
mp-7917,129,2.832054733,9.575608363,Hf2Ge2Se2,0,114.4840747,,6.12405531,-41.75968916,520,3.40E-06
mp-7918,129,1.869913358,8.927947272,Hf2Ge2S2,0,105.3447874,,6.91506704,-43.74653142,520,1.50E-07
mp-7921,148,6.628231262,3.940072238,Mg1Pd1F6,0,103.1350398,,-1.67067194,-34.88913962,520,5.20E-06
mp-7922,148,9.332778121,3.522936235,Ca1Pd1F6,0,122.7814416,,-2.30884272,-36.77091555,520,0
mp-7924,127,8.234006785,5.966776612,Li4Sn10,0.00564675,338.0936193,,6.47184637,-50.26383171,520,4.95E-06
mp-7926,186,37.20416069,7.546657784,Ta4Se8,0.000542438,298.253007,,2.9688079,-85.12434546,520,0.0011831
mp-7930,189,0.931740358,6.883905854,Zr3Si2Cu4,0,140.8792704,,6.51517742,-57.65043252,520,3.00E-07