material_id,spacegroup.number,delta_volume,density,full_formula,e_above_hull,structure.lattice.volume,band_gap.optimize_structure_gap,efermi,final_energy,encut,total_magnetization
mp-19044,63,-0.435368269,2.769344909,Na4Fe2O8,0.066798206,198.8586787,,-0.13000335,-70.57646612,520,2.000004
mp-19048,88,1.121550692,6.023400344,Ba2W2O8,0,212.3653812,,-0.04869733,-87.71362381,520,6.94E-05
mp-19053,221,4.42849469,6.408104065,La1V1O3,0.169812392,61.63307997,,8.60946558,-40.60371078,520,2.0155483
mp-19054,176,0.900809007,4.424802567,Ba2Mn2C2O6F4,0.023672099,217.8655014,,1.60908575,-113.3405949,520,4.9999036
mp-19059,225,5.237937197,5.557845493,Ca2Fe1W1O6,0.178231069,124.2413518,,,-69.16457063,520,4.0000005
mp-19066,65,7.412287719,8.42289322,W3O8,0.022266592,133.9636498,,3.88981141,-83.03070951,520,2.0003174
mp-19078,148,6.521980884,6.457351358,Ba2Sr1W1O6,0.000723859,165.1217857,,1.72752046,-69.28725085,520,2.87E-05
mp-19082,148,2.469792481,4.44854194,Ti2Mn2O6,0,112.5828099,,3.4063449,-85.8173864,520,5.0000007
mp-19085,225,7.529245588,6.964970894,Ba2Mn1W1O6,0,145.2956144,,3.276742,-72.87997077,520,5.0000026
mp-19091,225,22.44583938,5.121770836,Cr2O2,0.334406853,44.08990011,,,-30.20817306,520,3.9999995
mp-19092,13,5.7854155,7.420854178,Co2W2O8,0,137.2900934,,2.82038626,-84.83363882,520,3.00001345
mp-19094,136,3.600670923,4.449765576,V4O8,0,123.8048196,,3.29767911,-93.2962876,520,0.499992125
mp-19097,167,-0.665873273,4.084914592,Fe2B2O6,0,93.21505795,,2.86444612,-73.84500806,520,5.00000195
mp-19098,12,8.073405378,6.377787734,Ba2Ca1W1O6,4.22E-06,154.8035277,,,-70.25384672,520,0
mp-19105,31,0.838859998,2.851979151,Na6Mo2N2O6,0.015158595,264.2374863,,0.12992404,-90.62472916,520,2.69E-05
mp-19107,63,6.168740788,3.52742194,Li2Mn2V2O8,0,166.474801,,1.79498959,-100.8405167,520,4.99998485
mp-19111,59,-203.8112963,3.207371625,Na2V4O10,0.024650536,212.1327303,,,-113.0147308,520,1.00000455
mp-19120,63,0.447103683,3.052339148,Mg2Cr2O8,0,152.6511029,,0.25099194,-78.86548203,520,1.31E-05
mp-19127,225,-32.56243884,5.463422452,Sr2Fe1Mo1O6,0.003524971,128.5720728,,,-68.09890708,520,4.0000007
mp-19137,166,4.841409323,3.57530682,K2Mn1Se2O6,0,179.7645358,,1.35011616,-61.66431994,520,4.9999666
mp-19138,194,-0.771738332,5.933640736,Ba2Ni2O6,0.000122663,136.5780066,,2.76925584,-53.8866595,520,5.17E-05
mp-19142,12,7.144294452,3.669235354,Mn2V2O7,0,146.5176208,,1.68732718,-85.09152434,520,10.000502
mp-19143,148,1.421054146,4.927509416,Ba1Co2As2O8,0,179.6282913,,2.2756646,-81.58127003,520,6.0003179
mp-19147,167,1.339361965,4.23388143,Ni2C2O6,0,93.11068652,,3.37640242,-66.54525188,520,1.99971135
mp-19148,14,6.506981112,3.275477616,K4Mn4O6,0,239.357416,,2.21078171,-84.3845191,520,10.0000028
mp-19156,194,2.219566511,5.508618033,Ba2Mn2O6,0.007699809,144.8517562,,2.05853645,-68.93899207,520,3.0000018
mp-19157,15,2.675704161,6.42501935,La2Mn2O6,0.01090266,125.0074396,,7.07597437,-80.36265953,520,3.9999876
mp-19159,225,1.321193575,5.75073124,Ca2Pd1W1O6,0.340043483,134.6778291,,4.69417927,-65.07655492,520,1.6219138
mp-19163,88,0.664390741,6.042814295,Sr2W2O8,0,184.3645738,,0.60577946,-87.46564191,520,5.50E-07
mp-19168,167,2.313900554,6.442869255,La2Mn2O6,0.012434754,124.6611078,,7.17337425,-80.34733859,520,4.0000063
mp-19174,147,4.616236802,5.155193779,Ba1Mn1V2Ag2O8,0.017654389,205.4673595,,1.59083322,-93.66525153,520,4.9995599
mp-19175,15,3.999150933,3.988618936,Mn2Se4O10,0.006101391,243.8424142,,1.86152789,-95.33831505,520,4.99993485
mp-19177,136,-12.16474081,4.649631154,Cr2O4,0,59.99478495,,3.20067697,-44.51179314,520,2.00020735
mp-19182,87,6.876466056,6.389171058,Ba2Ca1W1O6,0,154.5277206,,2.11848797,-70.25388893,520,1.60E-06
mp-19184,225,5.373227675,5.006959122,V1O1,0.154029941,22.20069609,,,-15.54747661,520,3.0000003
mp-19188,166,0.830634928,5.093167911,Ba3Mn2O8,0,211.8730654,,1.57975116,-86.22971552,520,3.9997105
mp-19189,166,1.286532669,3.789063069,K2Co1Se2O6,0,171.3741528,,,-57.80176678,520,3.0000001
mp-19198,63,0.583685533,3.697834749,Co2S2O8,0.002319708,139.2039321,,2.03719572,-73.81020419,520,2.9999954
mp-19202,227,-24.75597517,4.172514379,Mg2Cr4O8,0,153.055445,,3.19962916,-104.3207966,520,5.99999925
mp-19206,65,2.090383958,6.728583011,Li1La4Co1O8,0.036772826,184.966065,,8.17495198,-106.3022439,520,4.00161
mp-19212,12,17.78115716,3.648583903,Rb4Mo2O8,0,301.1732116,,-1.12644534,-84.095249,520,0.00014605
mp-19213,194,14.49058214,5.250014601,Ba4Mn4Sb4O2,0,407.4157515,,3.98481637,-78.92492415,520,9.9955615
mp-19225,166,0.210490705,6.276913993,Fe1Ag1O2,0,51.77503101,,2.67727936,-22.42070518,520,5.0000908
mp-19227,194,1.996669446,4.88045675,Y2Mn2O6,0.020759404,130.5456864,,,-83.58569201,520,4.0000001
mp-19230,164,0.338364886,2.633902063,K3Na1Cr2O8,0.002212339,234.6982879,,-1.04670692,-82.75430237,520,7.00E-07
mp-19239,225,0.721545491,3.584529596,Mg6Mn1O8,0,152.3000965,,3.15336139,-93.8780255,520,3.0000009
mp-19241,186,4.874566401,5.919572315,Ba2Ni2O6,0,136.9025971,,,-53.88788613,520,0
mp-19245,123,6.048126021,6.421554248,Ba1La1Mn2O6,0.010215446,124.6667203,,,-74.64168368,520,7.0000002
mp-19251,173,7.058226715,2.836760391,Rb2Li2Cr2O8,0.000216613,243.9828816,,-1.50555174,-84.42268992,520,8.55E-05
mp-19260,15,3.08881952,5.625991925,Li4W2O8,0,154.4956406,,0.74231694,-91.68849098,520,9.85E-06
mp-19262,227,3.287792725,5.516732682,Cr4Cd2O8,0,168.801536,,2.35454835,-96.21607525,520,6.0000049
mp-19270,161,1.832936413,4.622643117,Ti2Fe2O6,0.022649387,108.9942284,,3.7085888,-80.56014983,520,3.9999891
mp-19277,85,-2.270182545,3.17859209,V2S2O10,0.027692487,170.310419,,1.75770747,-94.55307517,520,1.00003325
mp-19279,164,1.194602707,3.482321638,Li2Mn1O2,0.00902483,48.07529157,,,-29.94326201,520,5.0000002
mp-19280,12,3.304570945,3.003349258,Na1Cr3O8,0,169.7242159,,-0.41972894,-81.1180362,520,2.999873
mp-19282,225,1.126736698,6.575475655,Sr2Zn1W1O6,0.019544983,131.440883,,2.46584512,-65.36617831,520,3.00E-06
mp-19285,182,3.070425252,4.284986804,Ba2Fe4O8,0.035472661,242.6018969,,1.29031603,-91.4943223,520,9.99973875
mp-19290,12,1.992955968,4.21688812,Mn2As2O7,0.000821595,146.3750996,,2.39529618,-74.99475238,520,9.9999883
mp-19292,162,4.540479387,5.418440008,Co1As2O6,0,93.40089097,,3.55505417,-54.80637206,520,3.0002781
mp-19299,167,1.975770952,4.046621922,Cr2B2O6,0,90.93833327,,3.35476476,-80.21334938,520,2.99999975
mp-19302,63,1.432447403,2.914813622,Na2Ca2V2O8,0,202.8173284,,0.37418058,-94.30518918,520,5.04E-05
mp-19303,227,-6.388529434,4.960719604,Cr4Ni2O8,0.156535698,151.7587501,,,-96.62819064,520,7.999999
mp-19308,164,3.055727396,4.029936717,Li4Ni2O4,0.001913363,86.17978587,,,-47.93801947,520,2.00000035
mp-19311,12,3.690159243,3.831142878,V2Co1O6,0.010293092,111.3107377,,,-64.6517181,520,3.0000002
mp-19313,227,0.639312068,5.128217385,Zn2Fe4O8,0,156.1362503,,2.39211538,-85.81309504,520,10.00000145
mp-19318,227,-171.9923344,5.878803709,Ag4Mo2O8,0.000265503,212.2273082,,1.27415309,-78.25972132,520,5.32E-05
mp-19322,221,5.469738842,6.538724068,Ba1Mo1O3,0,71.4285907,,,-34.93217258,520,2.0000002
mp-19326,62,7.929219693,4.510677044,Mn4O8,0.00798532,128.0180547,,1.9590409,-85.41050381,520,3.000103025
mp-19328,221,5.346722983,6.76487516,Na1W1O3,0.052314588,62.55130826,,4.56280124,-33.20005494,520,0.9956634
mp-19329,100,2.176634114,2.719130025,Na4V2P4O16,0.04040267,350.3682962,,1.49216064,-177.2996686,520,0.99968215
mp-19330,88,-75.82485753,4.065475769,Ca2Mo2O8,0,163.3922971,,1.54809249,-85.06053506,520,2.84E-05
mp-19331,148,5.332479199,5.381676926,Mn2Ni2O6,0,99.7430129,,,-62.56367094,520,5.0000004
mp-19335,12,4.052790639,2.78922666,K1Cr3O8,0,192.3436161,,-0.86603098,-81.37535497,520,2.9998891
mp-19338,166,10.89504316,5.078227057,Li1Mo1O2,0.010981308,44.10460011,,6.22566944,-25.91640476,520,1.1499611
mp-19339,167,2.797694864,6.96311329,La2Ni2O6,0,117.1382702,,6.77725286,-66.25576748,520,0.9998194
mp-19340,166,2.426095113,3.932754338,Li1V1O2,0,37.95085957,,4.19936143,-27.73454729,520,2.0005079
mp-19341,164,2.563393873,7.173078154,Tl4W2O8,0,304.0025173,,0.84626931,-84.39334234,520,0.000349
mp-19344,141,7.546880518,4.995812513,Cr4Ni2O8,0.010518697,150.6927261,,3.71449859,-98.67242865,520,7.999872
mp-19352,164,1.128052667,3.181330967,K1Al1Mo2O8,0,201.4544906,,-0.48977912,-82.68612248,520,0.0001136
mp-19357,167,2.281293147,6.47645745,La2Cr2O6,0.009011134,122.5059835,,6.53817281,-82.34676969,520,3.0000002
mp-19359,166,-5.899874386,4.199378948,Na1Fe1O2,0,43.82635409,,2.64253369,-23.25619976,520,4.9999971
mp-19363,15,0.352061247,6.756781646,Hg2Mo2O8,0,177.2057131,,0.67302681,-68.45376105,520,0.000128
mp-19365,166,1.526209309,4.911718742,Ba3V2O8,0,216.99782,,0.70621321,-93.84549861,520,0.0004038
mp-19370,129,-0.255563998,6.175231906,La2Co2P2O2,0.219577728,131.6613214,,,-54.95588849,520,0.70806505
mp-19372,136,12.11618081,9.598379674,W4O8,0,149.3621907,,4.4497887,-92.6866709,520,1.0000015
mp-19376,161,1.883981521,4.484799874,Ti2Mn2O6,0.033542498,111.6726198,,3.84793862,-85.48196142,520,5.00000125
mp-19378,166,1.084526162,6.280759457,Cr1Ag1O2,0,50.72573947,,2.53419316,-25.65618845,520,2.999841
mp-19380,63,0.558866819,5.465359583,Cr2Hg2O8,0,192.3751165,,-0.6040695,-65.57005399,520,0.000133
mp-19383,148,1.261255853,2.953738806,Ti4Mn1P6O24,0,458.8722538,,1.02618517,-278.5074575,520,4.9983598
mp-19384,162,0.783013299,5.501470359,Ni1As2O6,0,91.9188694,,3.8360338,-52.28587431,520,2.0002224
mp-19386,166,1.607579899,4.272812656,Sr3V2O8,0,191.4923689,,0.93567516,-93.15063265,520,2.83E-05
mp-19387,13,1.560875157,7.517866332,Cd2W2O8,0,159.1427243,,1.086526,-76.880925,520,7.85E-05
mp-19388,148,0.862454897,5.02400126,Ba1Ni2As2O8,0,176.0198044,,2.05390601,-76.72178059,520,4.0002398
mp-19390,221,2.043634713,6.679734185,W2O6,0.001521397,115.2669766,,0.45831191,-60.07593124,520,6.70E-06
mp-19391,166,1.699055824,3.972747418,Na1V1O2,0,44.27691898,,3.77741104,-26.55175404,520,1.9999999
mp-19394,227,7.310988254,3.901832471,Li2V4O8,0.035386695,147.098583,,3.67892158,-102.0906399,520,2.9999944
mp-19395,87,7.105298056,4.003465347,Mn4O8,0,144.2370673,,0.79508845,-85.50632765,520,3.000258175
mp-19399,167,-7.364797897,4.889386865,Cr4O6,0,103.2382996,,3.48089347,-79.38999369,520,6.0000211
mp-19400,225,4.860325024,6.65400592,Sr2Ni1W1O6,0.009820629,128.2137138,,3.1487919,-66.33841098,520,2.0001607
mp-19403,225,8.002981628,5.47000148,Ba2Ca1Mo1O6,0,153.8103164,,2.29507409,-68.07268064,520,2.30E-06
mp-19406,148,0.991551359,6.244436716,La2Mg1Mn1O6,0,120.4764954,,5.96257819,-76.36278928,520,2.9999954
mp-19407,13,5.090193369,6.871998496,Mn2W2O8,0,146.3244729,,2.8322507,-92.70003332,520,5.00003755
mp-19409,162,0.943465179,5.047549813,Mn1As2O6,0,98.94959741,,3.54629611,-58.85828318,520,5.000019
mp-19410,227,2.956991163,5.069784776,Zn2Cr4O8,0,152.8932041,,2.64933534,-98.66673567,520,5.9999847
mp-19413,12,1.786752585,7.336640735,Al2W2O8,0.051336468,124.4024139,,6.06443215,-90.18966197,520,0.98638735
mp-19417,148,3.522914286,4.626966298,Ti2Fe2O6,0,108.8923902,,3.85379268,-80.7866437,520,4.00005725
mp-19418,63,4.524152618,3.756065749,V2Cr2O8,0.006758408,147.602537,,1.32516154,-92.20296214,520,3.0001381
mp-19419,166,1.04384389,4.582699653,Li1Fe1O2,0.344634736,34.34522721,,3.73050669,-23.03016155,520,5.0000342
mp-19420,87,1.150171741,6.16719948,Sr2Mg1W1O6,0,129.0750416,,2.67696493,-68.95032669,520,1.00E-07
mp-19424,148,1.950157555,4.863803812,Ti2Co2O6,0,105.6986623,,4.36960821,-78.25818312,520,3.00008075
mp-19426,88,7.707576408,5.83860824,Ca2W2O8,0,163.7702255,,1.33587679,-87.85156669,520,1.00E-06
mp-19435,13,4.395614987,5.374962468,Co2Mo2O8,0.004178475,135.2357349,,3.01563428,-81.21287082,520,3.0000032
mp-19438,63,-0.040088612,2.694914907,Li2Mn2O8,0.142715661,155.1240692,,-1.36358475,-69.71982885,520,0.0003168
mp-19442,225,5.717046634,5.935511232,Mn1Ni6O8,0.020044603,149.6996388,,4.96075306,-79.55540823,520,15.0003566
mp-19443,129,0.631489391,6.65653287,W2O6,0.000182572,115.6687391,,0.4553986,-60.08664184,520,8.65E-06
mp-19448,146,-47.96278708,6.182500376,Ni3Te1O6,0,107.3479268,,4.99322309,-51.53658352,520,5.9999698
mp-19449,63,1.403105918,4.207709627,Na2V2Cd2O8,0,197.589265,,0.28963367,-83.14674247,520,6.66E-05
mp-19450,164,1.043205126,4.094882007,Sc1Tl1Mo2O8,0,230.8253942,,-0.78277981,-86.25353967,520,5.05E-05
mp-19455,13,5.801179625,4.95259075,Mn2Mo2O8,0.004646619,144.0899987,,3.19546621,-89.10704698,520,5.00009785
mp-19456,227,10.19731215,4.27714152,Al2V4O8,0.022507436,149.7519355,,,-108.9644404,520,5.0000009
mp-19619,62,1.477750472,3.452066898,Na4Mn4P4O16,0.011373445,332.6770201,,2.9682342,-196.8422531,520,5.0000907
mp-19713,194,1.573370267,4.443026837,Sc6In2,0,186.6353401,,5.22869655,-45.86548467,520,1.480929
mp-19717,225,6.870577092,7.856996893,Te1Pb1,0,70.75839257,,5.04135922,-7.66739326,520,0
mp-19723,194,-0.542597384,9.249929649,In2Au2O4,0.017119409,123.4313616,,4.57343614,-39.69217238,520,1.00E-06
mp-19724,59,1.288163158,8.550045325,Cu6Ge2,0,102.2645801,,6.87624725,-33.90448148,520,2.04E-05
mp-19725,191,0.298355391,8.791406363,Hf1Fe6Ge6,0,179.3246381,,5.71413259,-91.47635485,520,0.092675
mp-19726,221,8.275767768,4.19580723,Sc3In1B1,0.08481338,103.0945838,,,-30.41650987,520,0
mp-19727,62,0.447288003,6.020154909,Pb4C4N8,0,272.7672466,,3.16883717,-116.5553002,520,0
mp-19728,62,7.41778439,6.663213117,Y4Si4Rh4,0,219.2019362,,6.18471527,-89.66797667,520,1.35E-06
mp-19734,148,5.853237476,4.906533339,Mg1Pb1F6,0,116.9274908,,-2.02173603,-36.86268702,520,0.0004166
mp-19740,189,-2.166822104,9.950163843,Y3In3Pt3,0,199.6658592,,6.37989327,-54.82247144,520,1.91E-05
mp-19744,25,8.413566286,6.693283061,In1Sb1,0.19229301,58.69272246,,6.67500102,-6.7222482,520,0.0008612
mp-19746,194,7.458989453,6.75571355,Nb2Pb2S4,0,179.0569491,,5.64995109,-51.19861803,520,4.22E-05
mp-19747,166,-28.84274364,9.078452318,Ni3Pb2Se2,0.08062345,136.8898251,,6.7746624,-33.44069012,520,2.53E-05
mp-19755,164,-27.77384782,2.603146735,Li1Ti3S6,0,218.7552344,,3.16097679,-63.81480017,520,6.10E-05
mp-19768,129,-9.573060164,9.699396042,Ni2As2Rh2,0,80.98473808,,7.16562356,-37.99331253,520,4.65E-05
mp-19789,127,1.444265384,13.75827153,Mn2B4W4,0,107.2341007,,8.14139108,-100.985387,520,0.0034109
mp-19792,136,-5.833540167,6.903404718,Zr2Fe8Si4,0.007032138,178.3717999,,7.02902218,-113.4989784,520,0.00042875
mp-19795,58,35.94060736,4.771415179,In4S4,0,204.4717943,,4.50232541,-31.48457655,520,5.73E-05
mp-19797,62,-1.493210058,6.177401818,Y4Mn4Ge4,0.095118705,232.7709738,,4.05644716,-87.01072212,520,0.1117185
mp-19799,166,12.92570669,5.700246101,Ba1Pb1F6,0,133.5707374,,,-38.57634444,520,0
mp-19803,227,0.044917852,6.640057175,Cd2In4O8,0,203.0864773,,3.12945397,-72.82102649,520,2.48E-05
mp-19804,166,0.492181604,6.975549219,In2Co3S2,0,112.0187816,,,-37.2971382,520,0.040848
mp-19807,166,0.901854307,7.188151861,Co3Sn2S2,0,110.5038091,,,-40.01991619,520,1
mp-19809,62,-45.85441234,6.540550616,Mn4Co4Si4,0.00484298,144.1619965,,7.46251508,-92.20769823,520,3.49399885
mp-19814,58,1.991773386,6.943241623,Ni2As4,0,99.74682846,,6.38188354,-31.70519638,520,4.50E-07
mp-19817,221,1.955536618,5.456269232,Y3In1C1,0,119.7702834,,4.231246,-34.05939456,520,0.0002925
mp-19821,194,-2.507891095,6.955264967,Cr4Ge2C2,0.006503685,90.07533187,,7.1519798,-66.90540229,520,0.21189115
mp-19835,194,23.64519006,8.050680164,Nb4In2C2,0,128.9713016,,7.30486602,-67.63068701,520,1.47E-05
mp-19839,191,0.843023624,6.394802041,La1Ga2,0,72.27956077,,5.44356971,-13.10756503,520,0.000591
mp-19845,221,-2.74468841,8.048701544,Ti1Pb1O3,0.040157104,62.52581159,,5.4670364,-37.83764286,520,0
mp-19850,225,-0.02369016,8.602194692,Mn1Co2Ge1,0,47.37977703,,6.13526665,-28.97437742,520,5.0008177
mp-19856,194,4.030353356,12.45369139,Sn2Pt2,0,83.68076121,,7.9667473,-22.47106295,520,0
mp-19858,191,-271.0232717,2.65629676,Sr6,0.224890648,328.6449757,,1.53296605,-8.76644629,520,0.000100717
mp-19870,221,-1.604833798,8.03243428,Ga1Fe3,0,49.0481662,,5.30154295,-28.92785336,520,6.9857374
mp-19871,227,10.17407355,14.82094421,Pb2Au4,0,134.7019502,,5.71471493,-20.95678498,520,1.08E-05
mp-19877,225,1.260248166,8.619194613,Zr1Ni2Sn1,0.0476714,63.06029639,,8.30888035,-26.10636739,520,4.00E-07
mp-19887,191,-201.8350939,8.30924096,Nb1Fe6Ge6,0,172.6271785,,,-91.5052328,520,11.8882668
mp-19895,58,-52.58691125,7.8112252,Ni2Sb4,0,128.4912767,,8.26254903,-29.25897903,520,7.80E-06
mp-19898,129,3.723710801,7.731538915,La2Ge2Ru2,0,134.2837948,,,-41.84845328,520,4.00E-07
mp-19904,225,2.880237449,8.686210646,Zr1Ni2Sb1,0.146623672,63.15683944,,9.03401035,-25.87298235,520,0.0006573
mp-19905,62,-2.911795225,7.586966779,Co8Si4,0,127.7763925,,8.25256599,-84.00608853,520,0.58429815
mp-19906,127,2.767904855,7.891004862,Zr4In2Ni4,0.003952425,174.5144439,,6.71410468,-67.82787724,520,1.13E-05
mp-19907,160,9.432071613,5.318409214,In2Se3,0.316585754,145.6578461,,3.75050001,-16.9982842,520,0.0027377
mp-19917,129,5.271666165,6.062740266,Zr2Si2Te2,0,135.2533165,,6.6894282,-39.05531143,520,6.60E-06
mp-19921,129,8.340574103,8.470752399,Pb2O2,0.001024975,87.50847622,,4.32503515,-21.818257,520,0
mp-19922,62,-0.047012673,10.02062998,Lu4Ni4Ge4,0,203.0306571,,5.00183018,-69.46886436,520,3.12E-05
mp-19928,115,-0.677434241,9.922901621,Hf2Cu1Sb3,0.03709906,131.4999978,,,-38.51769681,520,0
mp-19929,225,0.345602986,7.221691778,Mg1In1Ni2,0.001182578,58.98126784,,7.7256948,-16.67533606,520,0.0009031
mp-19936,191,-1.716947073,7.291015492,Sc1Mn6Ge6,0,184.5752481,,5.66556467,-93.17800082,520,11.643029
mp-19940,62,-0.771582439,6.798086782,V4As4,0,122.9761243,,6.77717348,-58.94576035,520,4.17E-05
mp-19944,221,5.190459909,5.692714136,Sr3Pb1O1,0,141.7813349,,4.20427068,-21.01793718,520,3.04E-05
mp-19946,225,-5.327000544,7.492702777,Y1In1Cu2,0.031042788,73.31568465,,6.38715415,-18.69433973,520,1.66E-05
mp-19955,51,0.272095502,8.37035163,Co4Cu2Ge4,0,129.6207117,,5.91148089,-56.91547571,520,0.48218845
mp-19956,129,11.77926092,5.978944343,Ba4In2O6F2,0,253.5510929,,2.58538102,-81.78193529,520,1.94E-05
mp-19959,129,2.115428543,8.124937204,Lu2Ti2Ge2,0,120.7753611,,4.2667738,-38.28323195,520,0.0194693
mp-19962,225,3.666599744,10.20040089,Sn2Pt1,0,70.4079952,,8.00678748,-15.44166966,520,5.90E-06
mp-19963,225,-0.220348721,8.367355344,Ti1Fe2Sn1,0,55.223329,,8.77832355,-29.8862277,520,1.72E-05
mp-19967,62,-6.243158601,8.335782273,Lu4Mn4Si4,0.014783805,205.5732062,,5.31099857,-83.01395571,520,0.0010762
mp-19971,225,0.080592406,8.972844618,Zn1Co2Ge1,0,47.36039842,,,-20.65712085,520,0.2774306
mp-19974,140,8.917719169,7.942450353,In4Ag2,0.00035277,141.1249363,,6.42792193,-16.78430768,520,0.0001333
mp-19990,123,20.84591157,4.546801686,Ba1Ti1O3,1.81867168,85.16420524,,,-30.9626211,520,0.4315549
mp-20001,62,11.56306777,8.910977184,Sr4Sn4Pt4,0,299.210111,,5.71603827,-57.34410284,520,8.00E-07
mp-20004,194,21.32669786,6.892762309,Zr4In2C2,0,149.0160291,,5.77169475,-63.68500557,520,8.08E-05
mp-20007,62,-0.167902001,7.865307824,Mn4Ni4Ge4,0,157.3039547,,6.33461481,-81.34932723,520,2.98548485
mp-20012,216,5.028515036,5.38406041,In1Sb1,0,72.96482117,,4.31942738,-7.10683422,520,0
mp-20027,58,-11.1028402,5.127713964,Fe2P4,0,76.29094996,,8.35380095,-41.77354754,520,3.04E-05
mp-20033,194,2.638012004,12.92844059,Sn2Ir2,0,79.87141505,,8.4276845,-26.64880751,520,0.000102
mp-20034,123,3.409374341,6.78442574,Ca2Pb2,0,121.046287,,5.25123168,-13.51491002,520,1.02E-05
mp-20042,194,11.42916145,6.401617803,Tl2In2S4,0.012578823,198.867414,,5.14032998,-30.8709598,520,1.47E-05
mp-20049,129,-1.692963394,3.874795891,Li2Fe2P2,0,80.36126267,,4.80950375,-35.4920933,520,8.54E-05
mp-20050,166,7.642285973,4.156657326,In2P6,0.0525607,165.9791354,,6.22825975,-38.38124933,520,1.04E-05
mp-20059,62,-1.121821748,7.23483527,Zr4Mn4Ge4,0,200.877739,,,-96.16001686,520,2.528066625
mp-20061,189,6.147608111,16.17220617,Ge3Pt6,0.033172908,142.5613941,,6.75519859,-53.39003446,520,4.07E-06
mp-20066,205,16.93093457,1.496116627,C4O8,0,195.3844816,,-4.16281746,-92.16719121,520,0
mp-20067,12,4.551780864,4.463387022,Na5Os1O6,0,149.2514889,,2.63727628,-64.97911837,520,1.0387884
mp-20072,166,0.708721637,5.324352425,La1Cu1O2,0,73.11946978,,4.13653799,-28.29972966,520,8.80E-06