material_id,spacegroup.number,delta_volume,density,full_formula,e_above_hull,structure.lattice.volume,band_gap.optimize_structure_gap,efermi,final_energy,encut,total_magnetization
mp-11287,191,4.993918872,9.287407726,Ca1Hg2,0,78.89458042,,3.0933797,-3.96038673,520,3.80E-06
mp-11288,127,8.75088741,5.581052901,Ca6Hg4,0,310.2741789,,2.74973806,-17.93794835,520,8.71E-05
mp-11290,221,3.17289164,6.028707105,Ca1Sn3,0,109.1310028,,6.98492585,-15.59574374,520,3.70E-06
mp-11293,225,2.190422165,8.333556304,Zr1Cd1Cu2,0,65.90044815,,4.91622604,-18.26434513,520,3.13E-05
mp-11300,123,9.624004334,11.25912758,Ti1Cd1Hg2,0.085550295,82.80596533,,3.82278288,-9.21021955,520,0.0243124
mp-11304,216,6.006479697,6.446429248,Li2Cd1Pb1,0.027333657,85.90463415,,3.86586977,-9.41224798,520,1.77E-05
mp-11305,225,6.314497902,6.822526256,Li2Cd1Pb1,0,81.16907511,,3.613865,-9.52158261,520,8.30E-05
mp-11307,51,1.36201216,5.243256709,Mg2Cd2,0,86.59589563,,3.4541547,-5.45912921,520,7.10E-06
mp-11309,221,5.723870196,8.86089131,Nb1Cd3,0.166414521,80.60850857,,3.22527662,-12.27318701,520,3.03E-05
mp-11312,221,-59.94168377,7.240183989,V3Cd1,0.364083771,60.83186604,,5.07712311,-26.71827607,520,1.2000961
mp-11313,221,3.103880933,8.172109791,Zr1Cd3,0,87.06069713,,2.96751012,-11.71946832,520,7.70E-05
mp-11324,164,6.663887133,7.779771148,Ta1Se2,0.024205003,72.32903557,,3.88018489,-21.21009867,520,0.000175
mp-11327,225,5.042416412,3.097730525,Rb2Se1,0,133.9565842,,-0.37837391,-8.60676784,520,3.12E-05
mp-11334,223,2.995388858,18.53188742,W8,0.114333357,131.7830139,,6.89065676,-102.9557604,520,2.79E-05
mp-11335,225,-3.314092632,4.894064121,Be1Se1,0.54333164,29.84865728,,4.9826004,-7.7337913,520,1.00E-06
mp-11342,160,14.95913244,4.414085553,Ga2Se2,0.000404838,111.8663982,,1.27552117,-15.40623587,520,8.12E-05
mp-11345,194,2.83942097,5.39687678,Zr4P4,0,150.3937649,,6.40055607,-66.85597422,520,6.00E-05
mp-11350,191,-13.8090885,3.19726417,Ca1Al9Co2,0.005184578,208.1491783,,6.494481,-54.51676061,520,0.0022045
mp-11358,221,-1.281262715,12.33766487,Ta1Co3,0,48.14960028,,5.830495,-34.11014959,520,0.0001558
mp-11359,123,0.783280289,7.08928822,Ga2Cu1,0,47.54724739,,4.6896619,-10.42307126,520,3.61E-05
mp-11360,225,0.848757305,6.778373168,Sc1Ga1Cu2,0,59.22808146,,5.72553756,-19.07277685,520,2.31E-05
mp-11361,216,0.314731993,5.655493154,Mg1Cu1Sn1,0,60.64945979,,6.00772394,-10.23673661,520,0.0002519
mp-11364,221,56.32171092,6.349501453,Ti27Cu27,0.083551975,786.6999025,,6.41379369,-326.8136078,520,0.033330963
mp-11365,221,2.669317007,5.505444877,Ti3Cu1,0.104951641,62.47917983,,6.0430669,-27.72097177,520,0.0001096
mp-11366,225,1.192189238,7.826258567,Zr1Zn1Cu2,0,60.19944717,,5.0655616,-18.89767307,520,1.68E-05
mp-11385,191,-33.79014236,6.99014154,Y1Fe5,0,87.45111165,,4.51574766,-49.05542921,520,9.9269254
mp-11388,221,1.557570705,15.17358278,Ga1Ir1,0,28.66571477,,8.08674961,-12.66026957,520,4.00E-07
mp-11390,216,-5.496838817,3.410760234,Li1Ga1Si1,0.051811642,50.99761409,,4.39377623,-10.85697323,520,7.80E-06
mp-11393,127,2.978789824,8.136715911,Nb6Ga4,0,170.6780838,,4.79978585,-76.34086141,520,3.00E-07
mp-11397,164,-23.80450763,7.682509422,Ga3Ni2,0,70.58353266,,5.48616847,-22.69390363,520,2.90E-05
mp-11398,65,-28.91436235,8.802755976,Ga3Ni5,0,94.81652146,,7.09552528,-41.0321715,520,0.0006222
mp-11400,225,0.478151763,6.986626956,Sc1Ga1Ni2,0,55.15596826,,6.2332722,-23.19560158,520,7.40E-06
mp-11407,221,2.562609438,17.67976235,Ga1Pt3,0.026129923,61.51731773,,6.79233485,-22.9469559,520,0.0004146
mp-11431,63,0.522916121,6.107404932,Ca2Ga6Ni4,0,199.3677331,,4.76770925,-51.10524035,520,2.50E-06
mp-11445,139,2.004614227,6.131493279,Y1Ti2Ga4,0.010893567,125.5343027,,4.6437121,-38.16550284,520,0.0027091
mp-11449,194,-8.042390203,11.30554798,Hf4Mn8,0,169.4188202,,5.81831911,-116.2604984,520,0.00517585
mp-11452,221,0.628116361,17.69125025,Hf1Os1,0,34.60885728,,6.75059409,-22.59402041,520,1.67E-05
mp-11453,194,9.795633415,12.76541226,Hf4Pd12,0,258.9914967,,5.82807879,-116.1051743,520,5.00E-07
mp-11456,194,13.53986324,19.26316721,Hf4Pt12,0.000687469,263.3468097,,7.36492585,-130.0455477,520,1.00E-07
mp-11457,221,1.587641969,13.27764506,Hf1Rh1,0,35.19210005,,6.37693066,-19.00024531,520,0.0005452
mp-11460,221,-0.127634377,13.17872669,Hf1Tc1,0,34.83814862,,6.11163607,-21.30125943,520,1.49E-05
mp-11462,2,26.65182869,4.967015459,K4Hg4,0,320.5238904,,1.03026628,-7.64604378,520,5.50E-07
mp-11463,191,3.978184458,11.02549292,La1Hg2,0,81.34176083,,5.60156786,-7.00723767,520,0.0062413
mp-11465,193,5.620765715,6.747906086,Mg10Hg6,0.003869059,355.979935,,3.69088124,-21.09696845,520,6.20E-06
mp-11466,191,7.753992613,8.971718625,Na1Hg2,0,78.50786354,,2.00093806,-2.62732577,520,0.0012572
mp-11470,123,6.009701668,14.14408243,Hg2Pt1,0.022718435,70.00239537,,3.22533618,-6.84000229,520,3.90E-06
mp-11471,221,1.786284323,9.281451218,Sc1Hg1,0,43.93047632,,4.29227788,-7.48993203,520,0.0255408
mp-11472,191,9.355989246,8.943030842,Sr1Hg2,0.001042002,90.76022403,,2.61576646,-3.73852386,520,5.45E-05
mp-11473,221,7.811316699,11.38187773,Tl1Hg1,0,59.08286757,,4.05860399,-2.72306327,520,0.0002313
mp-11474,221,17.51452791,11.50219884,Tl1Hg3,0,116.3820105,,2.96886538,-3.38243552,520,0.0005493
mp-11478,221,4.617571097,8.078766643,Ga1Ag1,0.082804992,36.50274031,,3.67269977,-5.76776846,520,2.80E-06
mp-11481,51,1.665701547,15.89165529,Mo2Ir2,0,60.21977438,,8.88655635,-40.72589726,520,2.05E-06
mp-11482,194,3.515506584,18.95428737,Mo2Ir6,0,117.848125,,9.79265449,-77.47652642,520,7.65E-06
mp-11487,221,8.482591664,15.79615295,La1Pt3,0.078612532,76.12560816,,7.75131166,-26.50066114,520,1.16E-05
mp-11488,221,2.737002029,8.946940576,La1Tl1,0,63.71389189,,7.66322241,-8.14056531,520,2.37E-05
mp-11489,225,-0.124159112,3.576138284,Li3Pd1,0,59.08383633,,1.36796658,-12.14138993,520,0.0001341
mp-11490,225,-4.661023853,4.774814507,Li2Zn1Sn1,0.04351545,68.85888237,,3.97408852,-10.16065491,520,2.80E-05
mp-11492,225,1.377425504,10.46298642,Lu1Ni2Sn1,0.014132984,65.23830392,,7.60820113,-22.16626057,520,0.0015099
mp-11494,221,5.986230616,11.44098298,Lu1Pb3,0.019508693,115.6133703,,6.81097933,-16.3310809,520,0.0001179
mp-11495,221,0.123251276,12.38301881,Lu1Ru1,0,37.01603156,,4.65594222,-14.72842319,520,0.000878
mp-11498,221,2.264707698,7.550402762,Mg1Tl1,0,50.29478057,,5.56395898,-4.03824784,520,0.000124
mp-11499,194,7.195413768,2.919276382,Y4Mg8,0.005637064,312.8863563,,3.21805902,-39.73888697,520,0.003784125
mp-11500,221,-1.663445089,7.608400518,Mn1Ni1,0.038562918,24.80014691,,6.39463596,-15.01063046,520,4.3616998
mp-11503,221,-1.956872976,7.407671128,Mn1Zn1,0.085961365,26.97757002,,4.2920404,-10.28736662,520,2.9594791
mp-11504,221,-1.537326325,7.450976266,Mn1Zn3,0,55.97512967,,3.63589397,-13.05936953,520,2.7455672
mp-11506,59,-29.65464901,9.512795616,Ni6Mo2,0,94.96685938,,8.41496778,-57.1490258,520,0.0001402
mp-11512,225,1.080866479,7.608515336,Li1Al2Ir1,0,55.24302863,,7.37674467,-21.17445378,520,1.80E-05
mp-11515,51,6.202538767,10.07624843,Nb2Rh2,0.02232282,64.53855786,,6.02609601,-36.44663897,520,6.50E-06
mp-11516,221,0.075730233,9.955453546,Nb1Ru1,0.02451697,32.35466374,,7.08073018,-19.67669406,520,0.0131604
mp-11517,221,1.331756053,11.00996948,Nb1Ru3,0,59.74282805,,7.08200326,-38.42902537,520,0.0005914
mp-11519,225,1.924013794,10.66259732,Ni1Sn1Rh2,0.028160667,59.67987471,,8.45918768,-25.50714958,520,1.0518658
mp-11520,216,1.552823922,6.942943781,Y1Ni1Sb1,0,64.42246466,,6.52609264,-19.07418115,520,7.00E-07
mp-11521,221,-0.129111103,5.419870705,Sc1Ni1,0,31.75605811,,5.84999192,-13.12232608,520,0.0001254
mp-11522,221,-0.571229319,9.475894645,Ni3Sn1,0.00205181,51.65851395,,9.42670472,-22.08493237,520,0.0076022
mp-11523,225,-1.519761078,9.424170946,Ni3Sn1,0.052855575,51.94203697,,9.51252707,-21.88171731,520,6.80E-06
mp-11524,194,-17.79092428,11.47937538,Tl2Ni2,0.232718845,76.11026147,,6.97650416,-15.36568823,520,1.80E-06
mp-11533,216,-0.452021074,8.345601058,Zr1Zn1Ni4,0,77.87886521,,6.49780909,-35.39789401,520,0.0004123
mp-11537,225,1.978946358,8.956131567,Nb1Al1Ru2,0,59.70657385,,7.68117864,-34.97629785,520,5.00E-06
mp-11540,225,-9.402988648,14.16512629,Pt1O1,0.937631226,24.74473007,,5.71781834,-9.89427829,520,4.00E-07
mp-11541,221,0.883741549,13.11886032,Zr1Os1,0,35.625454,,6.29660984,-20.83266245,520,1.00E-07
mp-11546,221,-0.127241069,7.998690592,Ti1Pd1,0.071323625,32.03019093,,6.14889786,-14.02711156,520,0.0014222
mp-11547,189,9.63157599,9.73017223,Y3Tl3Pd3,0,204.6415929,,5.71211673,-48.03278226,520,1.05E-05
mp-11550,62,4.230408612,7.658756099,Sc8Pt4,0,247.166347,,5.00133867,-86.6682444,520,1.54E-05
mp-11552,221,-0.386513157,12.55368879,Ti1Pt1,0.137201607,32.13634073,,7.34182736,-15.53564332,520,1.20E-06
mp-11553,191,26.12867237,13.06264368,Tl3Pt3,0.604308588,152.3422968,,4.78723903,-22.21117061,520,3.08E-05
mp-11554,221,1.672117448,12.53204028,Zr1Pt1,0.173291713,37.93680845,,6.18445775,-16.42822442,520,1.18E-05
mp-11557,194,2.839589022,13.22801355,Sc4Re8,0,209.5731247,,5.98245738,-129.0206491,520,1.88E-06
mp-11563,221,-0.315446902,8.281565262,Ti1Rh1,0.02593338,30.23143747,,7.21074846,-16.68956154,520,2.45E-05
mp-11565,191,5.222195994,9.680710887,Y1Rh5,0.096053322,103.5073403,,5.26756016,-44.94327935,520,3.86E-05
mp-11566,221,0.219563767,4.846371593,Sc1Zn1,0,37.81493877,,3.6342523,-8.35538499,520,0.0002394
mp-11571,221,4.070774869,6.99433465,Y1Sn3,0.041524584,105.6568552,,7.68676029,-20.16357833,520,0.0001004
mp-11572,221,0.571478934,14.25820676,Ta1Tc1,0,32.48682338,,7.29630499,-23.21684245,520,1.34E-05
mp-11573,221,-0.090980709,8.076822388,Ti1Tc1,0,29.98925029,,7.14883617,-19.2675529,520,1.39E-05
mp-11575,221,2.56204543,8.800690924,Y1Tl1,0,55.33861918,,5.74991971,-9.5768973,520,1.14E-05
mp-11576,221,1.500808317,10.89828602,Yb1Tl1,0,57.50685229,,4.53727237,-4.87912991,520,0.000114
mp-11577,225,44.39707235,7.027283044,Yb1Zn1,0.23298992,56.34522917,,1.31656008,-2.99687107,520,5.00E-07
mp-11578,221,-0.715007986,7.294934974,V1Zn3,0,56.26272821,,3.68908891,-13.0662618,520,0.0002286
mp-11580,189,-1.380244006,5.652776922,Ti3Cr3P3,0,115.3024718,,8.62114093,-77.43061932,520,0.0002983
mp-11582,33,20.39065653,4.014292514,Li4Ga4Se8,0,388.148984,,0.77230501,-62.26375928,520,0.000142275
mp-11583,194,4.094887705,5.411485902,Zr4S2N4,0,148.8406559,,5.21075882,-92.25783417,520,2.46E-05
mp-11584,189,2.36738275,9.717123628,Lu8Te1,0,261.0032714,,3.5275671,-41.83588579,520,0.0003456
mp-11585,148,3.892050455,6.469946757,La2Mg1Ge1O6,0.016045999,120.8205675,,6.039094,-74.24416941,520,1.40E-06
mp-11607,220,0.856672026,3.411326872,Si6N8,0.099626756,136.5720173,,7.67673227,-113.1504492,520,0
mp-11609,11,7.312063826,6.46389955,Sb2Mo4S4,0.001279404,194.0939299,,7.28210689,-73.45421942,520,1.50E-07
mp-11620,164,21.18533744,8.500913011,Zn1Ni3Sb2,0.21758826,94.74002503,,8.3348649,-27.12687984,520,0.0001406
mp-11621,216,1.303014278,7.765795805,Zn1Ni1Sb1,0,52.5720897,,6.67768112,-11.85888088,520,3.11E-05
mp-11644,227,-7.26948015,1.077138293,Li4Ca2,0.002969758,166.3717411,,0.90457801,-11.71623056,520,0.0011385
mp-11658,9,12.72730095,5.565114487,Cu4Sn2Se6,0.012385151,288.0488108,,4.17930415,-48.7238397,520,5.00E-07
mp-11659,148,5.792926567,4.022373284,Ba1Ti1B2O6,0.00226592,125.008739,,1.77183273,-80.96668193,520,2.76E-05
mp-11660,220,0.951783511,12.97489367,Hf6N8,0.068934986,151.4006286,,6.74211714,-148.7610405,520,6.35E-06
mp-11661,220,4.926691245,6.929321421,Zr6N8,0.045057602,158.0177035,,6.16005244,-137.9826735,520,1.65E-06
mp-11674,9,14.51887548,3.702709455,Al4Se6,0,260.8664223,,2.72199452,-44.34731258,520,0
mp-11693,166,5.412140227,11.16352426,Te2Pt2,0,95.99645548,,6.60282305,-19.78055195,520,1.70E-06
mp-11703,15,20.45462584,2.996771591,K2Sb2S4,0,249.3362236,,2.03196569,-32.92354607,520,0.0001356
mp-11713,160,2.190035249,3.171677706,Si5C5,0.002613725,104.9622812,,8.04611861,-75.27757296,520,1.18E-05
mp-11714,186,1.748112262,3.171928599,Si4C4,2.13E-05,83.96318312,,8.04766493,-60.24279761,520,0
mp-11715,148,4.085061911,4.346391824,Mg1Sn1B2O6,0,99.57499308,,3.44405657,-71.67234966,520,5.90E-06
mp-11718,225,2.401602805,3.671083293,Rb1F1,0,47.25313891,,-2.54161925,-8.17889598,520,6.00E-07
mp-11719,166,3.258187739,1.923342815,K4Zn1P2,0,244.9784253,,0.47620697,-19.29823135,520,5.67E-05
mp-11725,136,3.800203257,1.43407934,C4O8,0.006156904,203.8366799,,-3.88061783,-92.09330836,520,0
mp-11733,221,0.836397358,10.56086193,Lu3In1N1,0,102.7886789,,5.35929727,-29.73881428,520,0.0012175
mp-11734,225,4.054971768,6.297398693,Sr2Mg1Re1O6,0.004431921,127.030551,,4.87824318,-71.66127443,520,0.9960877
mp-11738,36,10.41187713,2.096002228,Na6P2S6O2,0,336.1280306,,1.35544513,-73.07446704,520,1.44E-05
mp-11739,166,5.374867495,4.529482101,K1La1Te2,0,158.8154576,,3.09861408,-18.30737788,520,2.58E-05
mp-11743,187,2.535348308,5.485903454,Li1Y1Ga4,0,113.4304487,,3.77013422,-23.49814734,520,3.00E-06
mp-11750,189,-1.429633857,4.445878868,Ti6Si2B1,0,132.2879855,,6.69055462,-70.80486319,520,0.0001345
mp-11754,189,7.04438715,5.887646279,Sc6Te2Os1,0,201.7037251,,6.15792906,-61.93805811,520,1.25E-05
mp-11755,189,5.322868464,9.701991821,Lu6Sb2Mo1,0,237.7783686,,4.52715033,-51.03205533,520,1.42E-05
mp-11770,121,-0.073052672,4.580401654,Co1Cu2Sn1S4,0.059933401,156.9743179,,5.11861541,-38.28011136,520,2.8410975
mp-11794,33,19.69143251,5.244898245,Al4Ag4O8,0.063688353,211.2975308,,2.41324934,-96.28642082,520,0
mp-11801,193,-25.04775108,1.163573044,K6N2,0.535352099,374.7619179,,-0.10238533,-19.43799432,520,0.5347109
mp-11806,216,3.166468685,8.350815512,Li1Mg1Sn1Pt1,0,68.61035183,,6.59114097,-16.24454975,520,0.0002009
mp-11808,216,0.083692632,8.058382517,Sc1Ni4Sn1,0,82.10386679,,8.44501589,-35.91692996,520,0.0001918
mp-11811,62,7.419192246,7.742017656,Ca4Ga4Au4,0,263.1869609,,3.86972175,-41.7693314,520,1.43E-06
mp-11815,194,4.49496561,7.991047955,Sr2Sb2Au2,0.315467716,168.8775603,,4.22238669,-20.5240581,520,1.53E-05
mp-11816,194,9.752068398,5.644062765,Ba2Cd2Ge2,0,189.6935867,,2.3702769,-17.74867656,520,5.05E-06
mp-11822,221,0,3.060417389,Ca3Ge1N1,0,112.2505316,,2.59677936,-22.66895484,520,0.0025039
mp-11824,221,-0.299601156,2.599830398,Ca3P1N1,0,105.5242158,,3.75497184,-24.85584903,520,2.13E-05
mp-11826,191,14.3120717,8.542682119,Ca1Pd5,0,111.2207962,,3.65034767,-30.13340885,520,1.16E-05
mp-11832,194,195.9277147,1.885903008,Cs2,0.042376764,234.046704,,0.48838268,-1.70602658,520,0.00088025
mp-11834,164,1.658575385,8.132513778,Cu1Ni1Sb2,0.002297301,74.68266019,,8.45463948,-18.71959258,520,0.0002937
mp-11840,62,11.09389024,5.466173948,Ba4Ag4,0,297.9460265,,2.32771198,-21.2861651,520,6.43E-06
mp-11869,216,1.939313271,10.40380685,Hf1Sn1Pd1,0,64.42130047,,6.32884501,-21.30621287,520,1.49E-05
mp-11870,123,4.70450674,12.53113977,Hg2Rh1,0,66.79788654,,2.80374772,-7.97428805,520,0.0001025
mp-11872,224,15.2299729,6.577313002,Ag4O6,0.185421108,133.1673282,,1.70768148,-38.78047988,520,0.0028295
mp-11873,123,6.391922773,11.28962856,Tl1As1Pd5,0,119.3457788,,5.81890117,-35.39516393,520,4.60E-06
mp-11875,198,33.6612823,0.877107267,C4O4,0.664994838,212.1148293,,-5.82806609,-59.21458406,520,9.53E-06
mp-11883,194,4.878592681,13.64970274,Mg4Ir8,0,198.89871,,6.92207519,-80.65477562,520,4.03E-06
mp-11902,11,25.20884283,4.836848314,Ba4Ge2Se8,0,455.321244,,1.7030984,-63.82651153,520,7.31E-05
mp-11917,164,0.124029305,3.025451609,Mg1Be2N2,0,38.60808926,,5.57821971,-30.9925273,520,0
mp-11918,140,0.371066691,2.678713961,Ca2Be4N4,0,106.7665978,,3.14861486,-63.35908687,520,2.50E-07
mp-11919,140,1.241448065,3.682290171,Sr2Be4N4,0,120.5466842,,2.78892213,-62.22612114,520,4.00E-07
mp-11947,225,1.165917999,6.463472374,Li1Al1Ag2,0,64.14020053,,4.13851138,-12.31978621,520,2.35E-05
mp-11977,194,5.999813152,8.924183727,Li2Sn2Au2,0,120.0600715,,5.53438834,-20.97453267,520,3.60E-06
mp-11984,189,8.233035884,6.803617759,Y3Mg3Tl3,0,232.5428193,,5.18180044,-34.44283461,520,9.53E-06
mp-11985,189,8.338952008,7.017535708,La3Mg3Tl3,0,260.9479302,,6.54175524,-30.0967108,520,0.000112833
mp-12015,121,6.686854035,5.026473143,K1Ag2As1O4,0,130.0800192,,1.43783618,-39.28629363,520,6.30E-06
mp-12029,194,-1.024189969,3.321940642,Li4Cu2P2,0,108.3736148,,4.44524281,-31.17558996,520,0.00021595
mp-12046,164,16.363728,3.760934535,Rb3Na1Ru2O8,0,269.1207847,,1.25568674,-80.74400613,520,4.0000261
mp-12047,164,8.92582702,3.126507366,K3Na1Ru2O8,0.005879159,249.8476628,,1.1839265,-81.13782592,520,3.9999989
mp-12062,191,6.990382106,6.66870262,Ag1B2,0.523627936,32.24368287,,4.48970668,-14.61790452,520,0.0001005
mp-12065,221,10.0774694,12.46041541,Ag3Pt1,0.035360563,69.12311039,,3.58062837,-14.49700579,520,0.000471
mp-12067,221,-0.739641086,5.310061959,Mn1Al1,0.046162675,25.61752909,,7.89995136,-13.34226336,520,1.88943
mp-12070,194,-4.052352629,7.115978793,Cu2As2,0.052189743,64.62381698,,6.17982256,-17.30596668,520,5.60E-06
mp-12071,223,19.53530064,5.730681211,Ti6As2,0.082420954,126.6395024,,7.15476951,-60.6655372,520,0.00017615
mp-12083,221,1.062151714,18.64844566,Cr1Ir3,0,55.97748312,,9.02233021,-37.13961537,520,1.1860351
mp-12086,221,1.269471758,12.41322558,Cu3Pt1,0,51.59871102,,6.55153184,-18.90229767,520,2.44E-05
mp-12087,225,-1.097229264,6.173937813,Cu2S1,0.09403759,42.80678232,,6.9671171,-12.46682233,520,9.91E-05
mp-12093,225,-25.61733799,6.137565882,Ge1,0.334600345,19.6529957,,4.11296972,-4.28814586,520,6.40E-06
mp-12094,216,20.39042409,4.16733725,Li2Sn1Ge1,0.150606566,81.77781826,,3.72922067,-13.06536445,520,3.14E-05
mp-12103,194,18.29213158,0.544259734,N2,8.88E-16,85.46901676,,-5.25204548,-6.24620528,520,2.0000575
mp-12104,181,2.008500707,5.577440715,Nb3Si6,1.73E-07,133.1518283,,8.7212986,-67.79903424,520,0.000484367
mp-12105,139,-1.637405228,3.144136878,Rb1O2,0,62.03860798,,0.43584298,-13.44935637,520,1.0000128
mp-12107,221,2.539974598,17.03307706,Ti1Pt3,0.003089971,61.72218987,,7.97426837,-29.4945036,520,6.80E-05
mp-12109,194,6.397903331,14.50078093,Zr4Re8,0,212.3717345,,6.16103708,-138.0805457,520,1.35E-06
mp-12110,221,-0.247941342,14.57870155,Ta1Ru1,0.040361425,32.12231886,,7.64437308,-21.69653428,520,0.0242135
mp-12118,194,8.688937469,8.708136929,In2Cu4,0.097017193,92.25876957,,8.34382911,-21.33340841,520,1.65E-06
mp-12120,194,3.350556286,7.138209555,Fe2N2,0.1931478,32.49875868,,7.38803121,-33.30392294,520,0.0004553
mp-12128,225,-3.540895327,3.350419091,Li2Mg1In1,0,75.83253586,,3.75269156,-9.07384542,520,0.0003433
mp-12170,55,13.62539611,5.062516365,La4Sn2S10,0,365.2983441,,6.91757721,-93.53899611,520,1.50E-06
mp-12177,4,16.49547108,5.292071853,Te4O10,0,210.3553089,,3.20750986,-74.97717112,520,2.51E-05
mp-12181,14,33.64201911,4.333304041,Ba4Sn4S8,0,490.7569816,,3.31607489,-77.46615763,520,2.83E-05
mp-12262,62,18.06994443,3.397006894,Cs4Be4F12,0,388.9336142,,-2.91932312,-104.0817774,520,6.16E-05
mp-12263,15,24.43403473,5.663814234,Li2Au2F8,0.00492547,164.1250297,,-1.97690073,-46.07551733,520,4.95E-06
mp-12274,51,-1.516332987,4.631450023,La2Al8Co2,0,219.2550571,,8.02772607,-60.29643652,520,1.55E-06
mp-12275,62,7.440010314,5.767469085,Sr4Zn4Sb8,0,456.6891203,,4.91062846,-53.8625387,520,1.88E-05
mp-12277,189,2.88221786,4.889478757,Ca3Ag3P3,0,182.2915673,,4.90760287,-37.59693206,520,4.20E-06
mp-12317,166,0,3.011449567,Sr3C3N6,0,211.1521444,,0.8392248,-93.04082347,520,0
mp-12324,5,29.61791347,2.583674904,Cs1V1P2S7,0,302.2313728,,3.04384567,-56.38527839,520,0.0003255
mp-12359,123,2.989390675,7.023189305,Ag1Sb1Te2,0.701376518,114.6311339,,5.74662734,-13.39630896,520,2.01E-05
mp-12360,166,3.739173494,6.977442793,Ag1Sb1Te2,0.652133126,115.382695,,5.82822108,-13.59328253,520,1.20E-06
mp-12364,40,16.00375979,5.29995983,Ba2Cu4Sn2Se8,0,437.9902299,,3.24941324,-68.04925931,520,0.00013885
mp-12378,189,5.397155117,8.537740171,La3Sn3Rh3,0,210.3574717,,8.62654813,-56.93933379,520,7.67E-07
mp-12385,87,10.95474944,6.839388955,Ba2Y1Ta1O6,0,155.5083532,,2.0788889,-83.45314235,520,2.79E-05
mp-12398,191,-0.534038437,7.859305114,Mg1Co6Ge6,2.85E-05,171.9304625,,5.69812217,-75.03469551,520,1.93E-05
mp-12411,216,1.706882796,4.288229532,Li2Zn1Ge1,0.008264372,58.83252168,,3.2844663,-11.01434538,520,4.00E-07
mp-12418,62,3.91768385,3.565903908,Sr4Ca4Ge4,0,373.1666122,,2.37403561,-40.5978357,520,2.78E-06