material_id,spacegroup.number,delta_volume,density,full_formula,e_above_hull,structure.lattice.volume,band_gap.optimize_structure_gap,efermi,final_energy,encut,total_magnetization
mp-973170,225,1.795001052,11.76676801,Sc1Cd1Au2,0.017569054,77.80005987,,4.6746908,-16.18127247,520,9.82E-05
mp-973185,166,3.205452147,5.391676749,Sc1Ag1O2,7.60E-05,56.92211814,,2.00795193,-28.18824693,520,0.0001206
mp-973191,221,4.148812558,9.398897227,Li1Tl3,0.05464196,109.5538256,,5.05025462,-9.25288854,520,0.0009521
mp-973198,166,11.08189288,1.040515655,Na3,0.000231385,110.0667997,,0.47938859,-3.93708045,520,1.41E-05
mp-973199,194,5.642493936,8.196019659,Sb6Pb2,0.186206361,231.9724523,,7.70444806,-30.70703724,520,0.0007575
mp-973203,225,0.177895389,8.577866026,Sb3Mo1,0.613136007,89.284889,,9.34688377,-20.82527291,520,0.0002088
mp-973217,62,1.007013868,4.345834492,Sb4S4I4,0.001798047,429.0658058,,2.79130981,-42.87023531,520,3.76E-05
mp-973256,225,6.714230326,8.427829679,La1Mg1Tl2,0.022948914,112.6968972,,6.96163205,-12.50116122,520,0.0001776
mp-973261,227,6.881570248,4.699005621,Mg4Sn2O8,0.028009831,163.4864635,,3.8670707,-85.50558122,520,1.20E-06
mp-973265,225,3.266276595,1.702503636,K3Zr1,0.979360769,203.3791686,,0.52940924,-7.96108185,520,3.8618117
mp-973267,221,1.377000577,5.049777311,K1Tc1O3,0,60.86604329,,3.88650232,-34.1983148,520,0.000905
mp-973269,221,2.352863849,6.794324598,Sb1Te1O3,0.769519951,72.67461141,,7.67686958,-24.31491042,520,8.46E-05
mp-973271,139,4.37679278,1.516521967,K3Y1,0.567095259,225.782681,,0.45825311,-7.53000608,520,0.8841348
mp-973278,225,5.375827342,2.137075519,K1Sr3,0.108156868,234.6260303,,1.11280013,-5.73560194,520,0.0013855
mp-973286,225,0.946740688,9.126047425,Li1Lu2Pd1,0.02202358,84.29930272,,3.30704325,-18.00345963,520,0.0005171
mp-973292,221,0.944650527,3.93060913,Mn1Be3,0.011897647,34.63127575,,4.876583,-21.08961289,520,0.9655966
mp-973300,194,1.201140731,9.980666545,Lu6Ga2,0.097279935,197.8618085,,3.37369214,-35.07130404,520,0.00370135
mp-973316,194,39.38031092,0.752362491,Na2Li6,0.045904648,193.3983013,,0.08449365,-13.70578179,520,0.00054615
mp-973325,225,1.109183171,2.904660534,Li2Mg1Ge1,0.04799595,63.35768259,,2.87110371,-11.15915216,520,0.0001064
mp-973334,51,5.130409184,1.391291132,Na2Mg2,0.113255299,112.8948629,,1.73930559,-5.42072363,520,0.00033275
mp-973342,221,1.334588467,11.42718706,Sb1Rh3,0.010535033,62.55459284,,8.41248987,-27.24932643,520,2.94E-05
mp-973343,225,3.572889069,5.466086279,Li2Mg1Hg1,0.022069543,72.5379202,,2.35074276,-6.75680885,520,0.0005922
mp-973353,225,2.009028875,16.9799923,Sb1Pt3,0.116640553,69.14143465,,8.48973793,-22.75207725,520,8.16E-05
mp-973364,194,-0.013837848,1.759673003,Mg4,0.021510033,91.74295746,,3.45425171,-6.33129971,520,0.000159925
mp-973372,187,5.327859947,6.188912617,Mg1In5,0.045172801,160.5545789,,6.50583857,-15.24577829,520,0.0003144
mp-973396,221,4.070298215,2.974704945,K1Be1O3,0.622856624,53.6497641,,0.63652241,-23.6029003,520,3.000116
mp-973402,225,2.30249215,10.92564345,Sb1Pd3,0.056693522,67.02863135,,7.16100972,-21.15134194,520,0.0001959
mp-973414,225,1.198589005,13.37610286,Lu2Ru1Au1,0.011510355,80.44050182,,4.87490462,-24.27707628,520,0.0003882
mp-973415,194,5.842393637,5.476902376,Li2La6,0.159949991,256.8969175,,6.72585862,-32.22365933,520,0.00310285
mp-973430,225,2.617200271,7.235539307,Lu1Sc1Zn2,0.008595005,80.49420404,,3.3021561,-14.82373658,520,0.0005658
mp-973432,225,1.821328706,9.852048748,Lu1Sc1Rh2,0.01949321,71.75642342,,5.40207327,-29.6290587,520,0.000123
mp-973433,225,1.053635438,9.984155165,Lu1Sc1Ru2,0.002084305,70.19641934,,5.15005729,-31.40097959,520,7.98E-05
mp-973434,225,0.893686748,15.5545252,Hf2Ir1Ru1,0.035432519,69.41991004,,7.33204212,-41.43727051,520,0.0016028
mp-973442,225,1.981720061,12.81293192,Lu2Ag1Pt1,0.005435043,84.61318853,,4.4403723,-21.31099683,520,0.0004176
mp-973443,225,0.689657881,15.21934277,Hf2Re1Tc1,0.034282169,69.95808304,,5.85922886,-44.31733124,520,0.0013268
mp-973444,225,2.687579385,1.426750306,K3V1,0.883779622,195.8037849,,0.41484461,-8.88251008,520,4.859704
mp-973446,225,1.602004255,2.723172663,K3W1,1.506951385,183.6263505,,0.83167856,-10.28700084,520,5.1481112
mp-973450,221,-0.606875801,12.97989257,Hg3C1,1.522122513,78.52197614,,3.02133877,-4.04805488,520,0.0016428
mp-973455,12,2.474130276,1.462921056,Li2Mg4,0.008930278,126.1101599,,2.4475229,-10.49923381,520,0.0007838
mp-973456,225,2.075482219,13.2177228,Lu2Tc1Au1,0.129503102,81.01868893,,4.63898356,-24.48227701,520,0.0003246
mp-973466,221,7.157264649,6.830190837,In3As1,0.202539151,101.9575548,,6.62703382,-12.56858435,520,8.48E-05
mp-973471,221,1.176543149,7.425356329,K1Re1O3,0.028342623,61.11910478,,4.37925323,-36.81404203,520,7.79E-05
mp-973508,139,15.42249332,1.411123595,K1Rb3,0.047559655,347.7314893,,-0.00644631,-3.96969311,520,0.0020499
mp-973528,225,3.650086293,1.548493441,K3Si1,0.336561806,155.8998078,,1.18449499,-7.54109245,520,1.0137186
mp-973534,187,0.447978933,15.50635758,Fe1Re1,0.101697732,25.92077434,,6.64095877,-20.73013892,520,0.0007493
mp-973538,225,0.901927562,8.452640287,Lu2Al1Zn1,0.008873625,86.89558999,,3.91298073,-15.53576974,520,0.0002593
mp-973539,194,0.316576589,5.620708563,Lu2Al6,0.013080433,151.209131,,6.16255156,-34.57330526,520,4.59E-05
mp-973540,65,0.496076374,6.879587016,Lu2Al2B8,0.003534224,118.3651814,,7.53068122,-75.91521044,520,0.00052605
mp-973544,225,0.351605003,12.24266543,Lu2Be1Os1,0.018604669,74.48774085,,3.95943791,-24.75104765,520,0.0054896
mp-973545,194,8.896075782,6.00311333,Ga6Te2,0.204854924,186.3093502,,4.54734949,-24.32836576,520,0.00073455
mp-973564,225,2.441913586,7.664843928,La2Tl1Zn1,0.021994353,118.6347128,,6.85774101,-14.90701978,520,0.0058856
mp-973572,225,6.259162567,9.096843289,La2Tl1Hg1,0,124.6355302,,6.90799554,-14.37916065,520,0.8410751
mp-973579,221,2.629344499,8.396315179,Fe1Pb1O3,0.181114398,61.51500577,,4.77924468,-29.495776,520,4.3125378
mp-973585,129,12.23377149,7.160364438,Lu2I2O2,0,147.4329956,,2.589914,-38.40909609,520,0.00037405
mp-973586,194,0.864170278,5.638895018,Lu2Al6C6,0,171.9428846,,6.84343897,-91.64458368,520,8.80E-05
mp-973599,194,11.8836331,11.5699021,Hg6As2,0.28411747,194.2406789,,2.87926775,-8.86534405,520,0.00055415
mp-973603,225,-0.633375542,10.53657142,Lu2Zn1Pd1,0.00811042,82.22862988,,3.77375359,-18.12800241,520,0.0004411
mp-973614,225,1.59217519,2.237224253,K3Sn1,0.107133557,175.1703476,,1.38593312,-7.49781407,520,1.0387985
mp-973615,194,1.054033247,8.369354458,Lu2Sb6,0.221836665,214.3776415,,7.40525059,-36.1037741,520,0.00064895
mp-973622,225,6.76244017,1.234144022,K3Sr1,0.123475152,275.7127087,,0.19675913,-4.52306739,520,0.0011953
mp-973623,225,0.751426129,10.04604254,Ge1Bi3,0.257876283,115.635773,,5.97234588,-15.28597588,520,0.0002615
mp-973625,225,0,9.646276364,Lu2Al1Tc1,0.067487161,81.75338989,,4.70423833,-24.10846857,520,6.50E-05
mp-973626,194,21.45094598,13.88302175,Hg6Au2,0.12165876,191.0727044,,2.71682402,-7.39650158,520,0.0015439
mp-973629,189,3.963556163,8.897296726,Lu3Al3Pd3,0,172.6562616,,5.18755313,-48.40033449,520,0.0002729
mp-973631,225,0.267640338,9.821107881,Lu2Al1Ru1,0.00094207,80.81711931,,4.85197546,-23.79318754,520,7.79E-05
mp-973633,63,1.466080599,7.677877303,Lu2Si4Ni2,0,125.3670346,,7.38320063,-48.65593065,520,9.90E-05
mp-973635,225,0.725577286,9.39582043,Lu2Zn1In1,0.008345283,93.69623914,,4.58703197,-14.51440714,520,0.0012697
mp-973636,225,0.959708048,9.448012421,Lu2Zn1Ga1,0.012451766,85.25296052,,3.4374572,-15.22377732,520,0.00072
mp-973646,225,0.87857945,11.11077187,Lu2Zn1Hg1,0.014184877,92.05308184,,3.46824762,-12.21144921,520,0.0004946
mp-973648,221,1.841975275,6.406852227,Fe1Rh1O3,1.052336207,53.58548561,,3.93671429,-28.01722715,520,7.7122264
mp-973653,225,0.877367525,9.839912663,Lu2Zn1Ag1,0,88.29474951,,3.32285287,-14.53095271,520,0.0019046
mp-973655,221,1.565144388,8.362078138,Lu1Si1O3,0.876545467,49.85357485,,10.93333351,-36.31272523,520,0.0003809
mp-973662,225,3.153084224,9.667790462,Lu2Zn1Cu1,0,82.25394246,,3.67547294,-15.68812408,520,6.28E-05
mp-973668,221,0.200553332,6.31231621,Lu1Si3,0.233558558,68.19220197,,,-21.45829925,520,0.0066688
mp-973674,186,1.490990299,10.14073858,Hg2N2,1.404392946,70.28012708,,1.35968013,-10.89475349,520,0.00182345
mp-973676,186,1.236914348,7.128657855,Hg2S2,0.002967218,108.3886247,,1.37270101,-9.38102019,520,4.38E-05
mp-973681,221,1.365841841,8.955629083,Lu1Rh1O3,0.721864552,60.42244652,,5.35985948,-34.10229323,520,0.0002722
mp-973684,194,0.205756536,4.222820477,Lu2Mg6,0.009459078,194.9492007,,3.1155119,-18.85221759,520,0.00197845
mp-973734,225,2.925823023,11.06534751,Lu2In1Hg1,0.01242199,99.84560946,,4.87476417,-13.76082581,520,0.0016787
mp-973738,221,1.159412649,5.517725295,Ge1B1O3,1.322843272,39.55915105,,5.70800967,-29.13135345,520,0.0052667
mp-973750,129,0.725905503,8.40588545,Lu2Te4,0.089210617,169.9545162,,6.72828169,-27.74191889,520,0.00050065
mp-973756,12,0.419903904,9.645356818,Lu2Mo2C3,0,99.4816497,,5.72477684,-60.96223302,520,0.000231
mp-973759,225,2.890323656,8.007122776,Lu2Mg1Cd1,0.002748825,100.9228092,,3.1218525,-12.24226743,520,0.0016343
mp-973771,225,2.208109956,9.616511849,Lu2Mg1Hg1,0.01953077,99.2590672,,3.57812657,-11.89919063,520,0.0027539
mp-973777,221,4.287834268,11.92566972,Hg3F1,0.167712447,86.43624994,,0.98285121,-4.52469984,520,1.49E-05
mp-973778,225,5.979366369,11.89527961,Hg3F1,0.160574105,86.6570776,,1.04797415,-4.55325321,520,9.25E-05
mp-973783,64,19.14243543,0.153384417,H4,4.44E-16,43.64781647,,-7.73418433,-13.53163621,520,5.00E-05
mp-973785,186,2.2136761,9.024151626,Pb2N2,0.651621214,81.40872993,,5.83989684,-20.72858,520,0.00072275
mp-973786,225,1.745890793,8.510319241,H3Pb1,0.660757029,41.01900885,,4.64684444,-10.79124211,520,0.0005633
mp-973824,225,2.805620744,10.97340096,Li1Hg3,0.014866197,92.11258961,,2.17249309,-3.49739259,520,9.40E-06
mp-973834,221,2.141763833,16.60902282,Pd1Au3,0.001468137,69.71672021,,4.65159029,-15.31398162,520,3.91E-05
mp-973847,225,3.152088101,6.359535916,La2Zn1Ga1,0.009069535,107.8235711,,6.29303362,-15.96868267,520,0.0001249
mp-973866,194,2.263452912,18.97881553,Lu2Os6,0.553115577,130.4815421,,6.36365758,-74.34955645,520,0.0001102
mp-973869,221,2.09739639,6.803893803,La1Cd1O3,0.412122148,73.04989014,,5.28431926,-28.98093091,520,0.0002753
mp-973874,225,1.567873178,4.619552538,Li1La2Al1,0.020865063,112.0553575,,6.07529724,-16.27060304,520,0.0030109
mp-973875,221,1.668014938,6.171658591,Ga3Ge1,0.094199739,75.82319071,,3.74354736,-13.35764757,520,0.0005648
mp-973878,189,1.334189335,9.290082419,Lu3Ga5Ni1,0,166.6260892,,4.25259846,-40.38696061,520,0.0003114
mp-973882,225,1.108619664,11.81005026,Lu2Pd1Rh1,0.015475168,78.63406275,,4.6312365,-25.53831721,520,0.0001006
mp-973884,221,0.11702924,11.90929288,Ni3Hg1,0.224291983,52.51995889,,6.34929705,-16.74974467,520,1.1026389
mp-973886,225,0.51936308,11.68432517,Lu2Co1Rh1,0.021278027,72.73150375,,4.44699301,-26.01756507,520,0.0087112
mp-973893,225,3.84330822,12.40405812,Lu2Tl1Hg1,0.005516988,101.0599137,,4.89993275,-13.13619106,520,0.000906
mp-973906,63,2.89780282,8.7339494,Lu2Ge4,0,121.7736952,,3.75016717,-30.99716368,520,0.00213685
mp-973908,221,4.116260041,11.59101937,Pa1Fe3,0,57.09959455,,8.64648762,-34.94759576,520,4.4348094
mp-973935,191,1.03497153,10.56846587,Os1N2,0.049038317,34.29085075,,5.57242125,-26.97761216,520,3.09E-05
mp-973938,63,4.247229462,9.008759797,Lu2Co2Ge4,0.051550358,139.7847276,,4.5073526,-46.19552863,520,8.68E-05
mp-973940,225,9.544327563,6.96335545,Li1Cd3,0.014815169,82.07456414,,2.30087427,-5.33062373,520,5.46E-05