material_id,spacegroup.number,delta_volume,density,full_formula,e_above_hull,structure.lattice.volume,band_gap.optimize_structure_gap,efermi,final_energy,encut,total_magnetization
mp-761936,8,5.95643527,3.703184018,Li4Cu7P6O24,0.101885073,467.4273328,,2.84621076,-253.5328733,520,5.0306914
mp-761954,1,3.505581617,3.012036403,Li6Mn3Cu1P6O24,0.066928948,463.0015933,,1.98940601,-269.7241954,520,11.9669183
mp-761979,62,0.709124607,3.577922832,Li4Co4P4O16,0.090268266,298.5981972,,2.68491434,-183.5627395,520,3.000141175
mp-761990,63,0.160515394,3.650316892,Li2Ni2P2O8,0.100116954,146.1199922,,2.67833033,-86.42122147,520,2.0001928
mp-761991,10,-0.168633453,3.941505412,Li3Fe3Si1O8,0.083427155,145.1105221,,3.1019733,-96.06189505,520,14.9983944
mp-762012,2,1.351023303,3.28470958,Li2Ni2P2O8,0.045949724,162.3839985,,1.66343049,-87.17956269,520,1.9999789
mp-762019,148,1.738965819,3.042106147,Li1V1C2O6,0,97.10719451,,1.92453561,-74.66299349,520,1.9999799
mp-762020,33,0.868189617,3.145727219,Li4Ni4P4O16,0.035622705,339.1166739,,1.02328771,-174.6482819,520,1.9998984
mp-762021,19,-0.341416971,3.497907066,Li4Ni4P4O16,0.043664913,304.973383,,2.05222184,-174.4231001,520,2.00004605
mp-762034,2,4.504334916,2.50650143,Li2Co2P2O9,0.076733697,223.7175192,,-0.67797295,-96.20784293,520,8.0003678
mp-762049,62,1.10334608,4.252454577,Li4Cu8P4O16,0.115822974,357.6952337,,4.40904131,-189.0762924,520,0.001285525
mp-762050,8,3.83761767,3.747894792,Li4Cu7P6O24,0.095564585,461.8511256,,2.88462996,-253.7920134,520,7.0790533
mp-762153,1,4.419558423,3.158443734,Li6Cr3Sb1P6O24,0.064812947,467.5051242,,2.30334346,-275.5232225,520,8.9987469
mp-762160,33,-1.414177183,3.304447745,Li8Ni8P8O32,0.095173771,645.6561784,,1.78413172,-345.9617041,520,1.99998315
mp-762163,12,1.355837589,3.855541865,Li3Ti1Mn2O6,0.067841375,118.2510136,,0.45367559,-83.77102858,520,9.0000907
mp-762173,62,-1.154484495,3.710503638,Li4Ni4P4O16,0.09713213,287.4996646,,2.84784812,-172.926018,520,2.000069075
mp-762225,4,0.401484106,3.973227437,Ba2C2O6,0.013234997,164.9459897,,0.58653809,-74.53306661,520,1.73E-05
mp-762265,2,10.87699876,3.797384033,Li3V5O10,0.058785452,190.4483268,,4.1979126,-129.4355155,520,7.9998078
mp-762268,1,0.123449178,3.393073221,Li3V2O6,0.081591862,107.0309568,,2.11541893,-72.59624726,520,1.000046
mp-762293,9,-0.105524863,2.883599413,Li2Co2Si2O8,0.102233846,181.9214235,,0.55765837,-91.67459494,520,4.00017685
mp-762304,14,0.525143161,7.832962568,Bi4O4F4,0.018816879,206.8874083,,2.66284674,-64.89320625,520,1.74E-05
mp-762319,7,-4.835847556,2.268005017,Li32Ti8O32,0.080008486,817.8420757,,-0.08442449,-449.7330082,520,0.002327413
mp-762351,8,1.107987046,3.539896481,Li4Ti7O16,0.031668846,290.285442,,1.88850987,-218.5217332,520,5.13E-05
mp-762406,12,3.059800691,4.047827467,Li1Mn4O8,0.036134904,145.5037071,,2.02448428,-90.65826447,520,12.9997817
mp-762412,12,1.096749876,4.010525197,Li2Mn3O6,0.036202205,113.7351484,,2.38773742,-74.50754039,520,10.9999929
mp-762454,141,0.62270611,4.176517001,Li2Cr2O4,0.041909183,72.31030644,,3.15106543,-54.85918908,520,2.99997495
mp-762462,1,-3.162718211,2.813188653,Li6Ti3Cr1P6O24,0.078873394,476.3894358,,,-289.4365957,520,5.9999998
mp-762484,12,2.573034822,3.611827151,Li2Ti3V1O8,0.091356609,154.6690975,,,-111.2217786,520,3
mp-762552,12,0.153077678,4.674060314,Li3Nb1Ni3O8,0.069387114,148.4322199,,3.04853012,-87.11527571,520,3.9999354
mp-762563,2,0.161985765,2.128421781,Ni1P4H16N2O16,0,376.6049709,,-0.21913226,-227.8203918,520,2.0008796
mp-762568,2,3.307042396,3.129511202,Li4Mn2P4O16,0.048378556,274.6024234,,1.54189142,-176.2342944,520,2.9979414
mp-762582,146,0.183124229,2.382616941,Li1Fe1P3O9,0.066772967,208.8739795,,1.12456311,-97.43251693,520,3.9999989
mp-762633,2,0.704564113,4.247776398,Li1Mn2Ni1O6,0.074212493,106.1373642,,2.04816859,-62.31494954,520,6.9997475
mp-762643,63,-0.074282629,3.627862908,Li2Fe2Si2O8,0.033827256,141.772825,,3.16532165,-96.22090193,520,4.9991118
mp-762701,74,0.731730315,3.798756166,Li2Ti2Fe2O8,0.091572506,152.6889997,,1.74873975,-101.6709932,520,4.9999982
mp-762704,2,0.713329164,2.780888963,Li4Fe1Si2O8,0.088568958,159.8953354,,1.18995863,-96.22098665,520,3.9999995
mp-762710,12,16.36850304,4.038108512,Li3V1Fe3O8,0.085552906,151.0378403,,,-95.88024912,520,15.9999988
mp-762756,2,7.967247584,2.958427555,Li6Mn6P8O32,0.064910558,634.845579,,,-364.4124018,520,12.00000025
mp-762776,1,0.352547379,3.657224772,Li4Ni5Sn1P6O24,0.0851736,458.4791026,,,-252.3631631,520,10
mp-762779,218,10.57223137,2.680342227,Li8Mn6P6O24F2,0.073901178,615.1767159,,0.63647673,-317.7809871,520,15.00046745
mp-762793,143,5.475968974,2.691784909,Li15V3P6O24F6,0.05247973,580.3456034,,1.35985696,-344.445496,520,2.000194067
mp-762794,146,0.197861458,2.764745932,Li1Mn1P3O9,0.093695733,179.4597623,,0.62548033,-99.53606212,520,4.9999717
mp-762796,9,1.110921868,2.718665824,Li2Fe2Si2O8,0.052166006,189.1855809,,,-95.96415943,520,4.99999975
mp-762800,216,1.66208085,2.31846294,Li4V1F7,0.078266767,151.6205762,,-0.73911523,-62.63893795,520,1.9999943
mp-762802,12,3.3436241,4.428401401,Li2Fe3Ni1O8,0.262595712,138.0303329,,2.7525322,-78.24989875,520,14.0004061
mp-762809,10,-0.520513008,5.211786129,Li1Ni1Sn1O4,0.071543119,79.12480982,,3.9984314,-37.85404944,520,1.0000358
mp-762810,147,5.044102737,2.402450796,Li2Fe2Si2O7,0.091636672,203.0279853,,-0.10780528,-88.9964427,520,7.9985684
mp-762821,12,3.658077349,3.736805027,Li3Ti3V1O8,0.057418527,152.5805716,,5.0150093,-115.0022942,520,3.6209003
mp-762824,60,9.037654045,3.096428888,Li16Mn8P8O32F8,0.04151995,784.2056172,,1.92059563,-477.0296965,520,5.003904625
mp-762829,12,2.419819232,4.073791311,Li1Mn3Ni1O8,0.073223497,146.1070954,,2.01231239,-83.48175092,520,10.001613
mp-762869,15,2.180451401,4.008774999,Li2Mn4O8,0.046437861,149.7963103,,2.41078345,-95.96604667,520,7.0000087
mp-762883,74,0.571351557,4.150390284,Li2Co2Si2O8,0.144406914,126.3949831,,4.00625422,-91.08417198,520,3.9996763
mp-762888,63,-0.949398216,3.762319378,Li2Co2Si2O8,0.084266409,139.4322112,,2.79086916,-91.92613905,520,3.99858355
mp-762903,167,1.004527865,3.175743835,Li2Mn2F6,0.03150206,124.3143974,,0.22011005,-57.62853258,520,4.9999968
mp-762906,12,14.57727867,4.11168019,Li2Fe3Co1O8,0.046403303,148.759602,,,-84.44480018,520,12.9999993
mp-762920,14,7.351930752,4.293144057,Fe4O4F4,0.062575792,140.5478309,,1.73366495,-72.13977354,520,4.999968325
mp-762993,63,6.811142386,4.484497737,Fe4O6F2,0.083076035,132.3296824,,1.79878538,-73.26586815,520,8.99364465
mp-763006,63,0.832060301,3.014136934,Li2Mn2F8,0.093338754,151.9127604,,-0.65845017,-64.42015519,520,4.0004466
mp-763033,12,13.79945479,4.116212659,Li2Fe3Co1O8,0.048101906,148.5957989,,1.64709574,-84.42101974,520,14.9998576
mp-763037,8,2.767822634,4.293422295,Fe4O3F5,0.078558984,141.6986276,,1.44015375,-70.50673718,520,18.9999824
mp-763051,164,2.117859793,3.454771759,Li2V1O2F1,0.007123085,55.66932137,,2.99231632,-37.38209196,520,2.0004298
mp-763056,65,1.582971684,4.300783723,Fe2O2F2,0.098110438,70.14908488,,2.13175079,-35.85667889,520,4.99999855
mp-763060,33,1.541653658,3.058164129,Li4Co4P4O16,0.049203735,349.3472758,,1.26563936,-184.7125464,520,2.99999075
mp-763061,33,-0.118399353,3.720691717,Li4Ni4P4O16,0.074236749,286.7124268,,2.93432649,-173.5670887,520,1.999982475
mp-763089,166,4.712844436,4.356963552,Li1Fe1Co3O8,0.029911084,140.0934932,,1.54771275,-75.87226667,520,7.9596559
mp-763099,71,1.453573373,3.424894341,Li2V1O2F1,0.103229477,56.15495842,,3.03257359,-36.80545361,520,1.9999977
mp-763104,26,1.302967326,1.906828149,Li4Mn2F8,0.06785088,252.2185677,,-2.09120787,-76.37420722,520,4.9999334
mp-763136,31,-11.2640447,4.333867367,Fe2O2F2,0.053918567,69.61358456,,1.64743388,-36.12183012,520,5.0000073
mp-763153,146,-0.937021431,2.898301122,Li2Ti3Co1P6O24,0.034549823,450.4671569,,0.78866581,-267.2048377,520,1.0021406
mp-763181,166,3.197927192,4.336474025,Li1Cr1Co3O8,0.038303438,139.2815895,,1.97115017,-79.18299319,520,11.5993279
mp-763183,2,0.394860118,3.106461812,Li2Mn2F8,0.042363642,147.3978724,,-1.64724447,-65.03185654,520,3.9997416
mp-763196,33,1.332210091,4.483261493,Mn4O4F4,0.068643365,133.2440566,,1.81195143,-80.49243026,520,3.9999641
mp-763200,5,0.634677849,3.258065173,Li2V2O6,0.084181379,107.9284953,,0.55964529,-67.57019855,520,0.0007304
mp-763207,6,5.974737535,4.289667996,Fe6O6F6,0.069374558,210.9925822,,2.0789901,-108.0872825,520,5.001553683
mp-763215,1,3.404735953,4.667847305,Ni6O2F10,0.067400793,204.2455952,,0.7977652,-77.0165179,520,6.9997586
mp-763235,1,5.892604592,3.117814887,Li8Mn8P8O32F8,0.029145485,749.2524735,,1.8827942,-432.3747586,520,3.999620688
mp-763240,20,-0.769713252,2.980444431,Li2Co2Si2O8,0.061526569,176.0101629,,0.52800188,-92.24449681,520,3.9988632
mp-763253,7,-1.606934635,3.096353551,Li2Co2Si2O8,0.086289371,169.4213859,,0.72722339,-91.89781758,520,3.99905745
mp-763262,1,0.889054444,3.507411893,Li2V1Ga3O8,0.073582132,190.3159052,,-0.37684849,-86.47189997,520,0.0007707
mp-763268,31,3.324689124,4.264370779,Mn6O6F6,0.047915567,210.1252374,,1.73320711,-121.1117458,520,4.000588133
mp-763287,31,3.9659683,4.511797294,Co6O2F10,0.041177473,211.8393897,,0.52286177,-92.60566078,520,9.99991035
mp-763299,31,3.343121224,4.680494529,Ni6O2F10,0.067901198,203.6937006,,0.76922802,-77.00751062,520,7.0000933
mp-763300,59,2.180038821,4.170844032,Li2Fe2O4,0.019952409,75.473386,,2.71148419,-48.65778172,520,4.9996024
mp-763326,92,1.218243575,5.106919911,Co4O4F4,0.099616963,122.1684243,,2.3176573,-63.52855208,520,2.983613775
mp-763329,166,1.727233858,4.482652279,Li2Fe3Te1O8,0.038613964,161.8853692,,4.27985025,-84.58237817,520,14.0113448
mp-763330,6,3.344377427,4.309906669,Fe4O4F4,0.063548085,140.0011952,,1.93980167,-72.12810602,520,5.00043985
mp-763334,1,6.893974275,3.198527917,Li4Mn5Cr1P6O24,0.068552014,479.8459066,,,-288.5791194,520,27.0000002
mp-763336,12,3.33385249,4.070163079,Li2Cr3Co1O8,0.082416891,145.5661975,,2.02532439,-94.28799041,520,8.9993643
mp-763342,6,5.374929556,4.306281293,Fe6O6F6,0.062597012,210.1785893,,1.97088756,-108.2092784,520,5.001427267
mp-763343,12,3.915854728,3.433893523,Li4V2O4F2,0.05617277,112.015587,,2.97209832,-74.1755877,520,2.000002
mp-763344,8,1.837126089,3.222688703,Li1V3O8,0.081544028,148.2730479,,0.56507793,-85.41426541,520,0.0008331
mp-763348,111,0.988314265,2.472461484,Li2Mn1F4,0.099798691,97.25883854,,-1.91243128,-37.96346893,520,4.9999428
mp-763351,38,5.867031412,4.449432364,Fe2O3F1,0.088611159,66.68627732,,1.63132188,-36.59972333,520,9.0321676
mp-763358,8,10.88680127,4.108482482,Fe4O1F7,0.056849449,150.5013039,,1.37834318,-67.8847755,520,17.00009
mp-763372,167,11.39328144,4.449808173,Li2P6W4O24,0.080163657,492.2386386,,2.77207732,-260.8243292,520,3.9995917
mp-763395,36,17.44656379,3.185569223,Li2V8P6O24,0.082426896,516.703989,,3.81980937,-297.9000946,520,11.9991327
mp-763405,160,-30.53506937,4.262595595,Mg2Fe4O8,0.032578217,155.8184503,,2.89296133,-91.04669988,520,9.999993
mp-763420,146,7.281652548,3.251976268,Ti2V3Cr1P6O24,0.082352082,444.4388438,,3.44914689,-277.9837027,520,10.9995969
mp-763422,44,0.953398328,3.222238587,Li4Mn2F8,0.039667341,149.2556965,,0.21144856,-76.76877676,520,5.0000404
mp-763426,8,11.78668436,3.228536927,Li4V7P6O24,0.083520619,490.7664412,,6.17028502,-297.8374455,520,20.995268
mp-763428,8,2.604511707,4.332234642,Li3Fe3Co1O8,0.066630135,143.8467123,,2.55765575,-89.59497536,520,13.9999082
mp-763429,12,3.540698893,4.360248723,Li1Fe1Co2O6,0.057084602,105.3577778,,1.68645305,-58.57450629,520,6.9965294
mp-763431,8,3.212604013,3.786816346,Li1Mn5O3F5,0.084277261,186.1987526,,2.49411095,-94.21099929,520,24.9999049
mp-763436,10,4.030161295,4.29639701,Fe6O6F6,0.08342915,210.6621258,,2.1223792,-107.8342999,520,5.001514283
mp-763444,1,2.153837367,2.633356923,Li10V2P6O24,0.093214638,467.3352968,,1.44278305,-278.6041834,520,0.99976265
mp-763449,8,15.03089302,3.097495461,Li4V7P6O24,0.084859602,511.5286198,,5.68733122,-297.7825471,520,20.9990654
mp-763469,123,0.239428863,6.535998628,Mn1Cd1O2,0.052729552,50.64641197,,3.07830684,-23.41439359,520,4.9998715
mp-763481,136,2.077979278,5.26307597,Nb4Co2O12,0.02588353,215.0134204,,2.11177594,-149.8574819,520,3.00094245
mp-763482,85,-136.418605,3.033524394,V2P2O10,0.004608381,177.2602407,,0.88022332,-103.111166,520,0.00058385
mp-763483,19,6.967293488,3.744834958,Li4P8W4O32,0.056785814,675.2838127,,0.67030364,-341.5699686,520,0.99905575
mp-763489,43,4.756126094,3.306138959,Li2V2P2O8,0.083553684,153.5445475,,4.12115946,-99.24886364,520,3.00007195
mp-763497,146,7.268071393,2.336398998,Li1V1P3O9,0.064885886,209.5208179,,2.04091339,-100.1844485,520,2.9999662
mp-763498,5,3.146684591,4.668426866,Li1P2W1O7,0.042588583,129.7308486,,3.01716166,-78.47578628,520,2.9998906
mp-763507,7,-1.517359672,3.648060785,Li2Co2Ge2O8,0.05373421,184.3602733,,-0.02622498,-83.79189157,520,3.999147
mp-763509,74,4.767389682,3.741114555,Li2Ti2V2O8,0.096389079,150.6886156,,3.59812633,-108.1384011,520,1.99999925
mp-763510,6,1.910873809,2.935607832,Li1Fe2C3O9,0.096253614,168.9369966,,0.81630143,-106.2080397,520,8.999831
mp-763532,2,11.4866409,4.400925877,Li2P6W4O24,0,497.7060688,,1.44255286,-263.7102209,520,3.99987505
mp-763533,1,14.33497608,3.046579269,Li8Mn7Co1P12O48,0.032569646,893.1651777,,1.37106321,-526.9223153,520,24.0010159
mp-763541,11,3.69654626,3.563986691,K2Mn4O8,0.000728512,198.4565794,,1.95384501,-93.65756877,520,7.00020555
mp-763551,160,6.265328982,4.511821615,Mn4V2O8,0.068696052,165.4827835,,3.71704656,-109.0682841,520,11.0030043
mp-763552,2,9.619520005,3.289437438,Li2V5P4O16,0.076361423,327.3562692,,,-198.7755367,520,14.9999995
mp-763576,12,6.487867867,3.583691413,Li3Fe2O6,0.063379434,105.882102,,1.41053584,-61.99877386,520,6.9968121
mp-763577,12,6.536642412,3.775978984,Li3Ti2V2O8,0.059318345,152.3496759,,4.39311065,-112.2232359,520,4.9991879
mp-763633,12,1.520002209,4.114187204,Li3Ti2Ni2O8,0.074729463,146.0832504,,2.69369565,-97.59278689,520,2.9991264
mp-763634,74,3.441759447,3.905898701,V2Cr2O8,0.065883507,141.9404024,,1.62606862,-91.49346096,520,3.0000003
mp-763637,2,0.523906203,3.786703461,Li4Fe2Si1O7,0.071344658,122.5813649,,3.26185128,-87.13897653,520,9.9998466
mp-763649,1,3.951727479,2.980477175,Li6Nb1Cr3P6O24,0.080191628,479.3447436,,3.97384878,-283.9881121,520,11.0008933
mp-763659,2,42.59824869,3.989829828,Li3V2Fe2O8,0.080256306,150.824662,,3.2281837,-99.20240384,520,13.0000006
mp-763666,1,0.538195388,2.829899921,Li6Ti3V1P6O24,0.075410642,472.9574147,,4.30285547,-289.8022941,520,2.7103621
mp-763673,15,1.524683309,2.411994769,Fe4C4O14,0.074567847,341.0682987,,-1.27203418,-157.6951009,520,10.0000887
mp-763682,12,14.59712611,3.849007354,Li1Fe3O6,0.122375904,116.687223,,1.05647225,-61.00238051,520,12.998899
mp-763688,146,1.319137928,2.669963146,Li7Fe1O6,0.053267239,124.6531,,0.73782579,-71.3484383,520,2.9997647
mp-763689,1,3.973661346,3.212092144,Li3Fe4O8,0.114905355,192.4134221,,0.16439672,-90.41124069,520,18.9997775
mp-763690,166,7.963815531,3.654766647,Li3Fe3O8,0.066180973,143.7347141,,1.05787947,-80.7660437,520,10.9512759
mp-763691,12,4.751939326,4.395091589,Li2Fe3O6,0.322058483,104.8114178,,2.81822487,-64.1834772,520,13.9985843
mp-763701,74,0.797976527,3.872165819,Li2Cr2Si2O8,0.062829512,129.5269622,,4.25069522,-101.9256661,520,2.9999939
mp-763705,12,0.630817954,6.620926133,Zn2Ni3O5,0.080302388,97.03394527,,4.49880839,-46.54272795,520,6.0002401
mp-763706,146,0.279298802,2.407353216,Li1Mn1P3O9,0.061565632,206.1021393,,0.71615925,-99.98588353,520,4.9997091
mp-763713,191,3.991957009,7.177239096,Cs1W3O9,0,191.664764,,3.52345783,-94.00241655,520,0.3259348
mp-763714,18,3.338823144,2.796499763,Li2V2P4H4O16,0.009589818,296.7072713,,2.02170369,-189.401996,520,2.00003905
mp-763723,1,4.937990799,2.889472949,Li6Mn1V3P6O24,0.048522979,470.8036987,,2.14354903,-281.8713423,520,9.9997074
mp-763730,60,17.95074669,3.034233442,Li16V8P8O32F8,0.054184249,782.7827427,,3.56584468,-475.6568283,520,3.00040165
mp-763740,173,0.883533877,2.322911095,Li2Fe2Si2O8,0.037585839,221.4171582,,-0.70129029,-96.16828178,520,5.0003885
mp-763748,60,13.60133235,3.02587584,Li16Cr8P8O32F8,0.052010093,789.5747671,,2.94143945,-473.4609006,520,3.999013263
mp-763751,74,3.834578426,4.643939027,Li2Co2Ni2O8,0.060532439,134.8509815,,2.47275763,-73.19605423,520,1.9997932
mp-763784,5,-8.843621697,3.342288406,Li1Mn2F6,0.063319762,114.6713967,,-0.37160523,-51.48172567,520,9.0000305
mp-763800,18,5.525990786,2.943871399,Li12Mn8P12O48,0.018219663,937.7337671,,1.32550085,-555.8639113,520,8.00667265
mp-763804,164,2.002441602,2.994147185,Li1V3O8,0.089902186,159.5906437,,-0.22994628,-85.31396751,520,0.0004433
mp-763840,19,6.441525716,3.088289602,Rb8Li4V4P8O32,0.092237838,900.6521878,,2.28293583,-368.4208149,520,2.0003323
mp-763860,164,3.148819238,3.750823309,Mn4O2F6,0.061617741,161.9185501,,1.07584008,-78.48164925,520,8.99994715
mp-763867,65,2.087414827,6.194924336,Mn1Ni3O4,0.072481887,79.07850064,,6.0989814,-44.46950284,520,10.9971039
mp-763883,8,3.028758019,3.885799657,Li2Mn4O5F3,0.09032007,158.3817087,,1.7973687,-92.45956442,520,16.9999523
mp-763902,12,4.09996481,3.939136135,Mn6O2F10,0.038816856,232.5311282,,1.26010045,-117.0853456,520,14.00206265
mp-763904,1,2.375179492,3.110469338,Li3Mn1V1P2O8F2,0.036894891,189.3273804,,2.11511623,-115.2413333,520,7.0001941
mp-763931,10,1.872346884,5.069360331,Co6O6F6,0.116658455,184.6103801,,1.98516305,-94.98608127,520,3.22263335
mp-763943,1,5.965327519,4.173870287,V6O7F5,0.043714015,203.9482274,,2.99389948,-130.5568802,520,10.9999572
mp-763944,123,1.628312326,3.179239965,Li5Co1O1F5,0.041577745,106.8794623,,2.2049982,-60.08186142,520,2.9998257
mp-763946,63,2.062519708,3.551156156,Na2Fe2P2O8,0.006422087,162.5452972,,2.44190303,-93.4961632,520,4.0000458
mp-763957,2,6.076981467,4.249508674,V6O8F4,0.043583345,199.1461953,,3.63338674,-132.3243229,520,5.00033075
mp-763989,12,3.106908331,4.117001192,Mn6O4F8,0.047644416,220.0659664,,1.59559354,-119.021538,520,13.0017409
mp-764001,5,1.221307229,5.239394114,Co6O7F5,0.123264425,177.6687448,,2.43383399,-95.80194334,520,16.7758098
mp-764003,166,1.971512355,4.077460285,Li2Co4O2F6,0.134073882,161.1090824,,2.05522383,-72.25472766,520,6.00007195
mp-764004,164,1.046953561,5.239595717,Na1Ni2O3,0.028581645,59.69996072,,4.06208913,-27.81256127,520,3.0000753
mp-764025,92,2.0808404,4.411148871,Mn4O4F4,0.02679979,135.4223051,,1.77546133,-80.99455317,520,3.999998625
mp-764027,12,3.65787451,3.42993849,Li4V2O4F2,0.052116208,112.1447512,,3.10286336,-74.22426644,520,1.99995925
mp-764034,74,15.2854697,4.081262805,Na2Fe4O8,0.125062249,161.6712982,,1.92650717,-82.57896709,520,8.99891355
mp-764050,123,1.362142165,3.489539197,Li3Co1O1F3,0.063632198,72.68830069,,2.45866964,-40.69117041,520,3.0006398
mp-764093,2,-1.00482283,3.06466648,Li10Ni4P6O24,0.055214087,473.5688787,,1.59027458,-273.6230227,520,3.99974265
mp-764099,12,2.156875912,4.630231181,Mn4O6F2,0.086585906,126.8636492,,2.39566639,-82.37220827,520,6.99971775
mp-764105,63,0.457646512,3.879090134,Na2Ni2P2O8,0.033781416,151.2425521,,3.06938021,-85.40488121,520,1.99989115
mp-764145,63,-0.344576782,2.50672809,Na2Mn2O8,0.045930278,188.0321142,,-2.01544843,-68.34570359,520,1.02E-05
mp-764151,1,9.684602742,4.681238187,Co6O4F8,0.090364983,202.0440797,,1.31506846,-93.58982468,520,10.3775652
mp-764163,38,3.062273739,3.334651129,Li3Fe1O4,0.051198131,70.04652401,,1.22485657,-43.08661994,520,2.9788556
mp-764195,8,3.617435036,2.934120479,Li3V2O1F7,0.04799074,153.7628964,,0.10562241,-74.86041666,520,3.9999973
mp-764199,5,1.168958851,2.933115587,Li2V2O2F6,0.081382782,148.1881934,,0.13741413,-70.59842864,520,1
mp-764200,166,6.466928868,4.548106439,Na1Fe5O8,0.017742854,157.0720604,,2.61508887,-90.17620207,520,24.9999923
mp-764204,8,2.073289985,2.911494369,Li1V2O1F7,0.075338075,147.0403875,,-1.48769917,-63.35687252,520,1.9999984
mp-764214,1,0.604063756,2.52637903,Li7V1O5F1,0.081451263,130.4858407,,1.40001479,-76.02953845,520,1.0000064
mp-764218,13,2.170513503,3.092318633,Li4V2O4F4,0.088761908,144.7925755,,0.73730841,-84.16660981,520,1.000029
mp-764219,59,1.84688515,3.534561045,Cr2O2F2,0.008086001,81.73958275,,0.1396561,-42.43938607,520,3.00031565