material_id,spacegroup.number,delta_volume,density,full_formula,e_above_hull,structure.lattice.volume,band_gap.optimize_structure_gap,efermi,final_energy,encut,total_magnetization
mp-865238,225,0,7.112560213,Lu2Mg1Al1,0,93.67124468,,4.04481599,-15.35029639,520,0.0017135
mp-865240,225,1.471094328,8.080706672,Lu2Mg1In1,0,100.4984185,,4.65363612,-14.43742426,520,2.89E-05
mp-865246,221,5.307119959,10.27134645,Eu1Bi3,0,125.9233636,,5.71745637,-23.8341393,520,6.8962487
mp-865247,225,-1.331830105,15.61604077,Ga1Fe1Ir2,0.25546482,54.23130254,,7.84832336,-28.96321495,520,4.290479
mp-865253,225,2.54535539,9.236773085,Lu1Mg1Pd2,0,74.08735265,,4.47005911,-19.93478629,520,0.0598279
mp-865255,225,0.976608974,11.41068072,Lu1Nb1Ru2,0,68.39868594,,6.08509854,-34.9110483,520,0.0001935
mp-865256,225,3.384611835,7.084082777,Lu1Mg1Zn2,0,77.3744956,,3.28652368,-9.8979127,520,0.020359
mp-865260,225,0.569367212,12.68052678,Lu2Zn1Ir1,0.005166971,79.56113469,,4.41790255,-21.97154389,520,8.10E-05
mp-865261,225,0.212296521,12.8365457,Lu2Zn1Os1,0,78.33708786,,4.03549198,-23.0209126,520,0.000194
mp-865271,225,1.155308523,9.821596991,Lu1Mg1Rh2,0,68.48745032,,4.83965164,-24.04100408,520,4.00E-05
mp-865278,225,0.433745075,13.66564469,Nb1Al1Os2,0,60.79824781,,7.78171312,-38.04667344,520,1.30E-06
mp-865280,225,1.14056113,7.347103617,Nb1Al1Fe2,0,52.33956055,,6.79748808,-32.24860719,520,3.00E-07
mp-865308,225,0.916404992,7.391896229,Be2Cu1Rh1,0,41.44124385,,6.38998914,-20.61440826,520,7.00E-07
mp-865315,225,1.139084006,11.24428593,Lu2Mg1Os1,0,83.35992318,,4.25679048,-22.75640509,520,4.44E-05
mp-865318,225,0.562641346,9.369255708,Lu2Mg1Ru1,0,84.24032551,,4.20025864,-20.95992113,520,2.68E-05
mp-865320,225,0.554316128,11.99583825,Lu2Pd1Ru1,0,77.16212026,,4.57928351,-26.59351008,520,9.46E-05
mp-865321,225,0.981034851,14.31478841,Lu2Ir1Ru1,0,74.61469577,,5.06371567,-30.22066058,520,9.00E-07
mp-865325,225,0.753198438,11.73745323,Lu2Co1Ru1,0,72.14261934,,4.1237223,-26.9468518,520,0.0006998
mp-865326,225,0.913363717,13.40683392,Lu2Pd1Pt1,0.002234084,80.68558452,,4.87994563,-24.91083131,520,0.0005901
mp-865329,225,1.031807504,9.153811013,Lu2Mg1Tc1,0.064917897,85.66610067,,4.13170807,-21.24688872,520,0.0001091
mp-865334,225,0.68366508,13.56798634,Lu2Ni1Os1,0,73.29209117,,4.59435564,-27.76713182,520,2.00E-07
mp-865335,225,-0.28935813,11.63827186,Lu2Ni1Ru1,0,72.7232051,,4.8475588,-26.1857429,520,0.0007855
mp-865336,225,0.787521983,13.96621995,Lu2Os1Pd1,0,76.87677684,,4.46907514,-28.14658845,520,2.10E-06
mp-865373,166,0.934386398,5.421446565,Y2Co2,0,90.56346969,,3.26331032,-27.93167825,520,0.0509554
mp-865376,225,0.621424838,2.731204384,Y1Mg3,0,98.38510823,,3.45823776,-11.61489538,520,1.14E-05
mp-865378,225,0.514508,11.63470977,Lu1Sn1Rh2,0,71.2883553,,7.35159722,-26.67093937,520,0.000594
mp-865379,225,0.359076178,11.73296369,Lu1Sn1Ru2,0,70.17182587,,7.1655528,-28.82862704,520,6.08E-05
mp-865382,225,1.218798257,7.857832116,V3Ru1,0,53.6536952,,6.79691241,-37.64289926,520,6.79E-05
mp-865406,225,0.417093741,11.72936256,Lu2Zn1Au1,0,86.68535384,,3.87893219,-16.10761685,520,0.0005777
mp-865413,225,0.731483964,11.85673855,Lu2Tc1Pd1,0.099983069,77.63740891,,4.41960541,-26.55248391,520,0.0004189
mp-865420,225,-0.920341714,11.38117353,Lu2Cu1Tc1,0.032285699,74.62609245,,4.47492681,-24.24093927,520,3.70E-06
mp-865427,187,7.090450566,2.930318288,K1Sr1C1O3F1,0,116.5796211,,-0.07598782,-45.7439416,520,2.89E-05
mp-865430,187,0.276195221,6.041353781,Y1Te1,0,59.50924732,,5.95446142,-12.25061881,520,0.7751349
mp-865433,225,1.305332941,5.550471029,Y2Mg1Ru1,0.05975681,90.70461752,,4.31573014,-24.58770655,520,7.71E-05
mp-865434,225,0.315979148,10.77647733,Lu1Zr1Ru2,0,72.16476086,,5.27359857,-33.99590094,520,5.89E-05
mp-865437,225,1.096226219,10.83476306,Lu2Zn1Ru1,0,79.14561142,,3.99052899,-21.33693103,520,3.33E-05
mp-865438,225,1.464659047,13.30330617,Lu1Tl1Rh2,0,73.04072921,,6.78204547,-23.99295511,520,1.30E-05
mp-865441,225,1.859983894,7.796986626,Ti1Al1Pd2,0,61.26957408,,6.7855734,-25.0425673,520,0.000112
mp-865442,225,0.400431744,13.17558551,Ti1Al1Os2,0,57.38322619,,7.65998017,-36.42568721,520,5.07E-05
mp-865443,225,1.185483406,13.11679935,Lu1Rh2Pb1,0,74.43587397,,7.05659504,-25.3310472,520,0.0007469
mp-865444,225,0.558317848,6.700873915,Li1Sc2Pt1,0,72.34466722,,4.7347024,-23.57751201,520,1.55E-05
mp-865445,225,2.162724473,12.20877549,Lu2Ag1Au1,0,89.0563598,,4.09535367,-17.67368977,520,0.0011897
mp-865446,225,2.427864066,11.61256017,Lu2Ag1Hg1,0,94.14684927,,3.63410663,-13.83391011,520,0.0014658
mp-865447,225,1.815064535,11.0016029,Lu1Sb1Pd2,0,76.91205588,,6.70610472,-22.47885973,520,0.0001846
mp-865448,225,0.460617806,9.30697568,Ti1Ga1Ru2,0,57.04582944,,6.61584557,-31.94870268,520,1.84E-05
mp-865459,225,1.072511534,11.4547819,Lu2Ag1Ru1,0,81.01674172,,4.28855666,-22.90013051,520,3.67E-05
mp-865461,225,1.517896712,9.417262952,Lu1Zr1Co2,0,67.7205567,,4.5291599,-28.40841952,520,1.128578
mp-865462,225,0.751794222,11.13806644,Mn1V2Os1,0,51.74074082,,7.41890809,-39.67506966,520,0.0002082
mp-865463,225,0.380690844,11.72939831,Lu2Al1Os1,0,80.29118661,,4.94554581,-25.46621485,520,0.012793
mp-865465,225,0.42681588,8.331146241,V1Co2Ge1,0.019207842,48.12466807,,6.7754874,-28.83552925,520,2.9085098
mp-865473,194,78.97627668,3.352169988,V2Br6,0,287.9576427,,0.34461361,-34.18123034,520,1.99977245
mp-865484,225,1.220046958,10.61855199,V2Cr1Re1,0,53.18298073,,6.6422368,-41.26373595,520,0.0002407
mp-865486,225,0.704626129,9.682977047,V1Zn1Ru2,0,54.61811037,,6.16582858,-29.76882864,520,3.52E-05
mp-865487,225,1.114537049,9.622114755,V1Zn1Rh2,0,55.59710745,,6.23671118,-26.7054077,520,0.0095202
mp-865492,36,5.455097729,7.905305561,Lu2Cu2Pb2Se6,0,286.7624322,,4.32991273,-57.47173663,520,1.81E-05
mp-865495,225,0.915213078,7.954741388,V2Cr1Tc1,0,52.57934337,,6.9840627,-39.14654699,520,2.62E-05
mp-865496,194,2.783807592,18.48599568,V2Ir6,0,112.7493337,,9.0948679,-75.33787012,520,4.30E-05
mp-865497,225,1.01988315,14.26321448,V2Re1Os1,0,55.68653787,,7.61810769,-43.08402294,520,0.0009165
mp-865499,225,0.904388595,11.7204601,V2Tc1Os1,0,55.27068572,,7.89154452,-41.12049761,520,0.0006427
mp-865500,123,2.790574023,6.266219165,Na2Hf2O5,0,127.9827861,,2.09754096,-72.3875113,520,0.0005589
mp-865501,225,0.907330703,9.088840952,V2Tc1Ru1,0,54.98437131,,7.80172581,-39.06768188,520,0.00418
mp-865502,225,3.099780837,10.98249849,Y1Ag1Hg2,0,90.40985026,,3.61767874,-11.28853868,520,2.40E-06
mp-865503,225,3.427647764,8.004029886,Y1Cd1Ag2,0,86.52306566,,3.3056921,-14.23345846,520,2.61E-05
mp-865506,225,0.425415499,14.24990219,V1Si1Os2,0,53.54395361,,9.63497877,-38.30192139,520,0.9519197
mp-865507,225,0.35264784,8.864954014,V1Si1Ru2,0,52.66680228,,9.58078039,-35.31476442,520,0.962947
mp-865512,225,6.23152759,5.949722656,Y1Mg1Cd2,0,94.34334618,,3.3838099,-11.17636709,520,2.97E-05
mp-865513,225,1.562946812,8.832463291,Y1Sb1Pd2,0.020170023,79.62082314,,6.61445485,-24.38900903,520,7.40E-06
mp-865514,225,2.559826702,11.32382036,Y1Sn1Au2,0,88.21188851,,6.29743807,-19.77228266,520,8.92E-05
mp-865515,225,2.22396952,5.072066554,Y1Mg1Zn2,0,79.89237287,,3.44274157,-11.96869739,520,0.0001572
mp-865517,225,0.656852786,8.757738341,Y1Zn1Rh2,0.02357216,68.28281571,,4.45720973,-24.9194071,520,8.09E-05
mp-865518,225,0.716678369,9.256281136,Y1Sn1Rh2,0,74.16708876,,7.25123715,-28.28130031,520,6.17E-05
mp-865519,225,0.608493038,11.11434331,Y1Ta1Ru2,0,70.51824779,,6.33274376,-38.23036104,520,1.70E-06
mp-865520,225,1.968356245,8.731270983,Y1Cd1Pd2,0,78.76557943,,4.09016376,-20.65552527,520,0.0002385
mp-865522,225,1.707437114,11.53018233,Y1Cd1Au2,0,85.72595084,,4.26161372,-16.6152047,520,4.78E-05
mp-865523,225,0.967342138,8.764977915,Ti1Mn1Rh2,0,58.46780175,,6.55917571,-34.06577043,520,4.8138905
mp-865524,225,1.160400233,12.45681315,Y1Cd1Pt2,0.001353667,78.84710746,,4.82058854,-22.77251823,520,1.19E-05
mp-865525,225,1.899500223,10.57758684,Y1Cd1Hg2,0,94.58391185,,3.73525279,-9.49640783,520,3.16E-05
mp-865527,194,0.143209358,3.572402903,Y2Al6,0,157.901187,,6.06753242,-38.91754043,520,1.07E-05
mp-865531,225,1.353354311,5.794350335,Ti1Mn2Al1,0,52.93819664,,6.83609801,-31.28691172,520,2.9871202
mp-865533,225,0.675842146,13.10128989,Ti2Re1Os1,0.00837943,59.84589196,,6.98448953,-41.71351102,520,0.0001026
mp-865537,225,2.095857176,7.350149775,Ti1Mn1Co2,0,49.85388653,,5.97769695,-32.38531467,520,4.9640575
mp-865538,225,1.112060732,10.42939477,Ti2Re1Pd1,0,61.83375125,,6.68221931,-35.34949147,520,0.0001129
mp-865560,225,1.000253921,4.800596059,Y2Al1Zn1,0,93.46367834,,3.960256,-19.56438272,520,5.69E-05
mp-865561,225,1.476792503,7.345293417,Y2Ag1Ru1,0,87.4319474,,4.41099281,-26.41013566,520,0.0003092
mp-865563,225,0.973282132,10.79136521,Lu1Zn1Pd2,0.000311296,69.73935614,,4.19825148,-19.33454525,520,3.03E-05
mp-865565,194,34.31368787,5.108296723,Cs2Sn6,0.056637325,317.9386414,,4.27226044,-27.06065364,520,0.0001291
mp-865566,225,0.257690795,11.36507753,Lu1Zn1Rh2,0,65.19189429,,4.43918138,-23.48144269,520,3.37E-05
mp-865577,225,3.706482668,8.10755055,Li2Cd1Au1,0,66.20805274,,2.49733869,-9.70889057,520,1.01E-05
mp-865582,225,3.418950849,6.196192503,Li2Cd1Pd1,0,62.36556101,,2.24586533,-11.44223782,520,2.10E-06
mp-865586,225,0.504481583,9.793425727,V1Ga1Ru2,0,54.73360287,,7.180774,-32.53232842,520,3.70E-06
mp-865587,225,0.931710501,6.900596146,Y2Cu1Rh1,0.006242537,82.84247788,,4.7347276,-26.58869238,520,1.00E-07
mp-865588,225,1.357348015,6.952852696,Y2Cu1Ru1,0,81.7814772,,4.82398485,-27.56589328,520,6.90E-06
mp-865589,225,0.792831389,13.75714587,Lu2Ir1Pd1,0,78.28494921,,5.10226922,-27.15920463,520,3.40E-05
mp-865592,225,0.790268347,6.725858859,Y2Zn1Ru1,0,85.00150842,,4.1410531,-24.90192697,520,0.0001747
mp-865593,225,0.124106818,10.69228174,Lu2Ga1Tc1,0.11431892,80.39347248,,4.2080357,-23.68491681,520,2.25E-05
mp-865594,225,1.238744139,8.702307937,Y2Cu1Ir1,0.001280694,82.73296249,,5.14173856,-28.19026498,520,4.60E-05
mp-865595,225,-0.164977639,11.4141234,Lu2Cu1Ru1,0,74.85729152,,4.71633988,-24.15438987,520,9.10E-06
mp-865598,194,3.582602709,6.28173021,Y2Ga6,0,157.5887244,,4.10410285,-35.42516771,520,0.0004421
mp-865599,225,1.230721655,13.93216733,Lu2Ru1Pt1,0,77.00556,,5.20974416,-28.08714028,520,2.06E-05
mp-865600,225,1.009986637,9.414584241,Y2Ir1Pd1,0,84.03575205,,5.18970843,-30.49298739,520,3.42E-05
mp-865601,225,0.51870748,12.34889068,Lu2Ru1Rh1,0,74.4834798,,4.6774019,-28.75430748,520,0.0002211
mp-865603,225,0.821930992,9.641541444,Y2Ir1Rh1,0,81.45229754,,5.30475666,-32.50846973,520,0.0001461
mp-865604,189,8.641266914,0.816177996,Li5Mg1,0.000218935,120.0576457,,0.47196526,-11.27269779,520,0.0023934
mp-865605,194,-13.05324601,2.917789499,Y2Br6,0.0610572,374.0384763,,-2.21116716,-37.58759559,520,0.0006646
mp-865607,225,0.143408788,10.86752841,Lu1Ga1Pd2,0.00552733,69.90977143,,4.6355265,-21.37747141,520,0.000265
mp-865609,225,-0.091627657,11.54656294,Lu1Ga1Rh2,0,64.78763437,,5.61448768,-25.93715314,520,2.81E-05
mp-865612,194,20.26923568,6.994180633,Li2Cd6,0,163.4256802,,2.24991413,-10.77976881,520,1.10E-05
mp-865615,225,-0.006635257,9.406648322,Ga1Si1Ru2,0,52.94937975,,8.38312676,-28.95328536,520,1.09E-05
mp-865623,225,1.475707235,14.07092806,Lu2Ir1Rh1,0,76.12443876,,5.23278208,-29.34465939,520,6.10E-06
mp-865625,194,6.173351689,2.78591151,Na4Mg2Sn2,0,225.2999125,,2.82965327,-18.11621152,520,0
mp-865640,225,1.685049486,9.276401862,Ti1Ge1Ru2,0,57.75600794,,8.16181101,-33.8521509,520,2.00E-07
mp-865641,225,1.634197749,7.004045735,Y2Ni1Ru1,0.019632384,80.03326273,,4.85925221,-29.42124811,520,2.10E-06
mp-865649,225,1.19767277,8.248623422,Ti2Tc1Rh1,0,59.71680914,,7.44760863,-36.44978477,520,4.90E-05
mp-865650,225,0.652178548,8.257825526,Ti2Tc1Ru1,0,59.28116907,,7.12818094,-37.99913283,520,0.0002126
mp-865653,225,1.012351776,13.37431882,Ti1Nb1Re2,0,63.71671639,,6.41195599,-44.37222604,520,1.09E-05
mp-865655,225,0.839389212,8.908700709,Ti1Nb1Tc2,0,62.77294113,,6.89778004,-40.51981315,520,2.79E-05
mp-865659,225,0.73677835,8.453616244,Y2Zn1Ir1,0,85.53278023,,4.55929555,-25.52423701,520,5.71E-05
mp-865664,225,0.941489801,16.25979895,Ti1Re2W1,0,61.6961199,,7.27270807,-47.11748286,520,9.98E-05
mp-865665,225,1.025009894,11.96773406,Ti1Re1Tc2,0,59.67334029,,8.21973641,-42.13564028,520,0.0001085
mp-865666,225,2.53305382,7.447940867,Li2Tl1Ag1,0,72.7123669,,3.63315758,-9.92133389,520,3.70E-06
mp-865669,225,0.218788117,8.054001337,Ti1Si1Tc2,0,56.06998613,,8.48862171,-36.24284019,520,0.0001506
mp-865678,225,1.16860085,6.930633199,Ti1Mn2V1,0,49.99960304,,6.33171351,-36.39165726,520,0.1668814
mp-865679,225,1.975600157,9.28762266,Ti1Sn1Pd2,0,67.83616906,,7.69003038,-24.68159102,520,2.07E-05
mp-865680,225,0.288591492,13.72747253,Ti1Si1Os2,0,55.20978263,,9.40721007,-38.23251848,520,2.00E-07
mp-865681,225,0.280504424,8.522606012,Ti1Si1Ru2,0,54.18336273,,9.34860177,-35.42152679,520,1.50E-06
mp-865707,225,0.798934353,9.592845857,Ti1Sn1Rh2,0,64.46103912,,8.71712213,-29.26501376,520,0.0005329
mp-865710,225,0.625595297,11.42436938,Li1Sn1Au2,0,75.52187059,,5.61479634,-14.00463406,520,1.96E-05
mp-865711,225,1.791555353,9.713716694,Li2Tl1Au1,0.001340472,70.98299764,,4.20772121,-11.01157953,520,8.70E-06
mp-865712,225,0.325131161,6.578271442,Ti2Mn1Ni1,0,52.84967307,,6.99235116,-32.06753141,520,5.38E-05
mp-865713,225,3.003865066,7.656258594,Li2Tl1Bi1,0,92.66381952,,4.20568838,-11.57068111,520,0
mp-865714,225,1.952445789,10.14677633,Li2Hg1Au1,0.00024722,67.33269605,,2.68584577,-9.22838815,520,3.18E-05
mp-865717,225,0.785415269,13.06534963,Ti2Re1Ir1,0,60.263054,,7.76650154,-40.09917004,520,4.76E-05
mp-865728,225,0.749384365,9.791113954,Ti2Re1Ni1,0,57.77041532,,7.03848838,-35.71279987,520,3.92E-05
mp-865729,225,4.403659155,6.981401298,Ca1Ag2Sn1,0,89.08131205,,5.08620388,-13.06396999,520,1.97E-05
mp-865731,225,1.857124548,8.566684504,Li2Hg1Pd1,0,62.20069075,,2.56590207,-10.97560832,520,2.65E-05
mp-865732,191,3.267437686,9.295726648,Lu1Cd2,0,71.41617513,,,-7.1525842,520,2.40E-05
mp-865733,194,0.546951606,10.87491242,Co2Tc6,0,107.7818977,,7.82120731,-76.78902072,520,0.0010282
mp-865737,225,2.932552976,5.127599223,Li2In1Sn1,0,80.1220895,,5.4620596,-11.78988147,520,9.46E-05
mp-865743,225,0.442000364,12.69176297,Ga2Ir1Rh1,0,56.85718851,,7.26949193,-24.44171326,520,3.28E-05
mp-865746,225,0.240654924,12.49473494,Ga1Tc2W1,0,59.74651852,,7.23673016,-37.21534531,520,2.70E-06
mp-865747,127,11.07151996,5.101196423,Y4Mg2Ge4,0,226.168818,,,-55.48782311,520,2.40E-06
mp-865750,12,11.11662437,3.390620902,Li4Te2O6,0.005406739,185.5938948,,0.88117173,-63.64684549,520,6.68E-05
mp-865768,225,0.618535574,10.00906049,Ti2Mn1Os1,0,56.55687214,,6.71114487,-38.19097329,520,0.5486108
mp-865779,225,0.421163513,9.531789078,Ga2Co1Ru1,0.009247815,52.16723479,,6.05223323,-23.64320284,520,0.0006974
mp-865780,225,5.399329324,6.573744025,Ti1Mn2Ga1,0.037536744,57.45832531,,5.98255419,-30.17147287,520,2.9861295
mp-865786,221,3.83388521,10.27041211,Cr1Pd3,0,60.02536622,,4.97837262,-25.52031723,520,2.7610352
mp-865791,225,0.324121345,8.980898496,Cr1Si1Ru2,0,52.18185964,,9.04473678,-35.25978746,520,1.9965794
mp-865793,225,0.779250216,4.670742479,Li1Sc2Rh1,0,71.01793709,,4.25963169,-24.12896743,520,3.18E-05
mp-865795,225,0.808130383,4.681768231,Li1Sc2Ru1,0,70.19966815,,4.36703429,-25.30509174,520,3.57E-05
mp-865796,225,0.88050298,11.52543323,Lu1Cd1Rh2,0,71.05672928,,4.25189003,-22.69442615,520,1.40E-05
mp-865797,225,0.816680258,10.67590332,Lu1Co2Sn1,0.034804203,64.01180726,,6.74235061,-24.03206828,520,1.0404322
mp-865798,194,1.864214285,8.653749936,Ga2Cu6,0,99.91959744,,6.48650349,-31.44466073,520,1.63E-05
mp-865803,225,1.224735687,10.29815065,Ti2Mo1Pt1,0,62.36330967,,7.57757538,-35.27434422,520,2.37E-05
mp-865804,225,0.415970614,12.47647551,Ta1Zn1Rh2,0,60.1806509,,6.33603919,-30.00035133,520,1.39E-05
mp-865806,225,0.822160888,9.696752223,Lu1Ga1Cu2,0.033159621,63.66652578,,5.00366868,-17.15842086,520,0.0001137
mp-865809,225,0.621936105,9.516406209,Ti1Tc2Sb1,0,63.79907438,,9.25460772,-34.15174875,520,0.0006584
mp-865810,225,0.769262641,11.6935631,Ti1Tc2W1,0,60.73633548,,7.82233382,-43.18452365,520,3.17E-05
mp-865829,225,0.722395051,13.17701616,Lu2Cu1Ir1,0,76.32862424,,5.14567452,-24.76858918,520,0.0002593
mp-865830,225,0.607846706,13.25037807,Lu2Cu1Os1,0,75.65701283,,4.77872742,-25.82123212,520,1.48E-05
mp-865838,225,0.283401919,8.004451419,Li1Si1Ru2,0,49.20065244,,7.23290714,-27.30069399,520,0.0002537
mp-865840,225,0.623836551,10.73571151,Ti2Tc1Ir1,0,59.69671431,,8.05103526,-38.35752669,520,6.48E-05
mp-865842,225,0.794388742,10.87579658,Ti2Os1Ru1,0.00089097,59.0931489,,7.59603323,-39.24874283,520,5.60E-06
mp-865846,225,0.545265652,13.04802695,Lu1Hf1Ru2,0,70.70728108,,5.48558177,-35.67798072,520,0.0001577
mp-865847,225,0.168828388,12.84834631,Lu2Cu1Pt1,0,78.65170004,,,-22.55516263,520,1.59E-05
mp-865848,225,4.151148854,10.07758997,Lu1In1Ag2,0,83.297497,,5.17166628,-14.25951216,520,0.0001096
mp-865861,225,3.248195195,12.25330316,Lu1Mg1Au2,0,80.3897755,,4.66591214,-15.82675821,520,0.0046193
mp-865863,225,1.629353266,8.284981404,Li2Tl1Pd1,0,65.0758994,,4.3462568,-12.79241023,520,5.60E-06
mp-865866,225,0.532299474,12.12197005,Li1Zr1Pt2,0,66.89473806,,5.12910487,-26.07365814,520,0.0001546
mp-865867,225,2.328919349,6.296267721,Li2Y1Tl1,0,81.01143552,,4.04587517,-13.65384282,520,0.0001248
mp-865868,225,0.798591631,8.088550205,Li1Zr1Rh2,0,62.40475764,,4.56642023,-27.69436464,520,1.60E-05
mp-865869,225,0.45292892,10.67065998,Be2Cu1Pt1,0,43.05219856,,6.84441265,-19.49221612,520,1.18E-05
mp-865870,225,0.590440352,8.741675352,Li1Zr2Os1,0,72.11113939,,4.5892948,-31.50948129,520,3.88E-05
mp-865871,225,2.525232564,7.715578202,Li2Zn1Au1,0,59.45587827,,2.55212891,-9.92759066,520,8.70E-06
mp-865872,225,0.921715345,8.504161808,Li1Zr2Re1,0.014112338,73.33959952,,4.13901436,-32.03306686,520,0.0001007
mp-865874,225,3.013770118,7.789760065,Li2Ag1Hg1,0,68.71309024,,2.12885327,-8.14287468,520,1.64E-05
mp-865875,225,5.976267742,3.176793322,Li3Ag1,0.00286253,67.26807194,,0.97533341,-9.18525505,520,3.30E-06
mp-865876,225,0.822643735,10.69039844,Ti2Tc1Os1,0,59.64110835,,7.19485469,-39.90511705,520,0.00025
mp-865877,225,1.099909572,12.83599709,Ti2Re1Pt1,0.070422593,61.71072102,,7.469386,-36.94857047,520,2.19E-05
mp-865878,225,0.199601183,7.393030421,Ti2Tc1Ni1,0,56.69739317,,7.39577379,-33.84557686,520,0.000884
mp-865879,225,2.51996554,8.428296408,Li2Ag1Au1,0,62.79342966,,2.53912923,-11.53143458,520,3.00E-07
mp-865884,225,0.849885383,11.57737529,Lu1In1Rh2,0,71.08316741,,6.93656745,-25.28980374,520,0.0004176
mp-865888,225,0.490614746,9.777330191,Ti1Sn1Ru2,0,62.62128426,,9.62579146,-32.7800649,520,0.0001198
mp-865890,225,3.463335683,3.15162462,Li2Ca1In1,0,88.92634495,,3.04651228,-9.69243719,520,0.0013362
mp-865892,225,2.427120909,4.998707954,Li2Ca1Pb1,0,86.7556936,,4.40607653,-11.21001545,520,7.10E-06
mp-865893,225,0.704903648,6.5570763,Li1Zr2Tc1,0,72.77948773,,4.40309577,-30.07234861,520,0.0001141
mp-865895,225,0.0618352,10.2704978,Ga1Ge1Ru2,0.00532916,55.69941126,,6.8901616,-27.40349357,520,1.84E-05
mp-865899,225,0.748979958,8.810677529,Ti3Os1,0.013266674,62.91677416,,6.60861403,-36.28385527,520,2.4227906
mp-865901,225,0.634167401,6.649421811,Be1Co2Si1,0,38.69868669,,8.31333648,-25.75525229,520,1.71E-05
mp-865904,225,0.067928654,14.44743032,Be1Si1Ir2,0,48.4494335,,10.73800349,-29.48537462,520,0.0009024
mp-865907,225,3.626711011,5.837214905,Li1Zn3,0.001595755,57.79612387,,2.60766497,-6.36064122,520,4.03E-05
mp-865910,194,7.091471093,9.680397243,Cd2Ag6,0.00497993,149.5849618,,3.15492481,-19.21219936,520,3.40E-06
mp-865912,225,1.722248174,7.193913131,Li1Zn2Rh1,0,55.55151842,,3.22922744,-13.45694993,520,5.80E-05
mp-865914,225,0.834726061,8.499064356,Ti1V1Tc2,0,57.5994019,,7.35058494,-39.5005215,520,0.000196
mp-865916,225,1.025301954,13.40356449,Ti1V1Re2,0,58.37875128,,6.80636123,-43.45881376,520,0.0001484
mp-865917,225,0.261531923,10.67960299,Lu2Zn1Tc1,0.065188329,79.8181443,,3.98206299,-21.536682,520,8.21E-05
mp-865919,225,3.710770498,6.367011208,Mg1Al1Ag2,0,69.64052671,,5.30521259,-11.72744771,520,0.0004947