material_id,spacegroup.number,delta_volume,density,full_formula,e_above_hull,structure.lattice.volume,band_gap.optimize_structure_gap,efermi,final_energy,encut,total_magnetization
mp-961718,216,4.685898963,7.07640608,Ti1As1Rh1,0.444164414,52.96104547,,5.67778675,-21.21614719,520,0.0002494
mp-961719,216,7.846000623,9.735846664,Hf1As1Rh1,0.483535691,60.77318959,,4.76545631,-23.08176111,520,8.87E-05
mp-961720,216,8.004386181,7.20545384,Zr1As1Rh1,0.524467359,62.00440183,,4.44232325,-21.63986704,520,0.0001712
mp-961721,216,10.10202177,11.30636879,Hf1Bi1Rh1,0.603504622,72.0203225,,5.2520458,-21.08797638,520,0.0005033
mp-961722,216,6.116512219,9.336248871,Ti1Bi1Rh1,0.467031978,63.9854125,,6.04250102,-19.2385773,520,0.000194
mp-961723,216,0,4.158214632,Li1Ca1Rh1,0.319449514,59.87076361,,2.21348996,-11.04370326,520,0.0003328
mp-961724,216,10.1453328,9.137748955,Zr1Bi1Rh1,0.540807031,73.25433536,,5.01021358,-19.79523451,520,0.0001436
mp-961725,216,4.337422427,7.681431895,Cr1Ge1Rh1,0.354133572,49.18896831,,4.55770554,-21.64749024,520,3.4996264
mp-961726,216,6.103385997,7.866306633,Nb1Ge1Rh1,0.615211726,56.66888514,,4.16145417,-22.06064119,520,4.40E-06
mp-961732,216,6.904763215,12.00906665,Hf1Ni1Pb1,0.842415945,61.44657251,,6.9325288,-17.9603525,520,7.36E-05
mp-961774,216,0.960453635,4.34911728,Ba1Na1Sb1,0.12001092,107.699898,,2.68235827,-9.28031315,520,7.32E-05
mp-962057,216,1.693386049,2.678747442,Sr1Ca1Si1,0.709592032,96.56923214,,2.57775628,-8.34051539,520,0.0002018
mp-962058,216,8.850411741,4.165480443,Y1Se1Cl1,0.828149788,81.051608,,2.93116694,-15.52881821,520,6.70E-06
mp-962059,216,15.76394798,2.463580355,Sr1Mg1Si1,0.874107232,94.3719578,,,-7.27752074,520,0.0067028
mp-962060,216,5.541654477,2.867217318,Na1Y1Si1,0.750236355,81.06958339,,2.4140333,-12.65608085,520,0
mp-962061,216,15.02403561,5.590909305,Y1Mg1Tl1,0.57077973,94.32767663,,3.32729814,-9.76860568,520,0.0005373
mp-962062,216,-3.18652913,4.519728347,Ba1Sr1Sn1,0.408960169,126.2588857,,2.84299334,-8.23796357,520,7.92E-05
mp-962063,216,2.109786028,6.609977637,La1Mg1Tl1,0.276952648,92.34582014,,5.67051455,-9.20137899,520,2.66E-05
mp-962064,216,9.686154766,3.966399728,Na1Y1Sn1,0.483461908,96.54337936,,2.65263704,-11.83075886,520,0.0001781
mp-962065,216,4.470184095,3.582480022,Sr1Ca1Sn1,0.621650935,114.2142039,,2.71628504,-7.87133206,520,0.0002454
mp-962066,216,8.391903786,3.142307067,Na1Li1Te1,0.330127063,83.24647682,,1.48492336,-8.36986838,520,4.45E-05
mp-962067,216,-2.675104495,4.059105102,Ba1Na1Sn1,0.284858212,114.1470428,,2.32635831,-7.78877427,520,0.0013629
mp-962068,216,1.103443515,3.515384037,Ca1Mg1Sn1,0.258776606,86.48644678,,4.31477066,-8.50669711,520,0.0001551
mp-962069,216,0.544200947,6.148525621,Li1Ag1Te1,0.130017166,65.46771781,,3.4468773,-9.15409465,520,6.10E-05
mp-962070,216,5.49802019,2.105329522,Li1Sc1Si1,0.595103347,63.08462225,,,-13.56314059,520,0
mp-962071,216,11.11899133,5.496729156,Mg1Sc1Tl1,0.385149638,82.66677949,,3.73033238,-9.56188889,520,0.000505
mp-962072,216,1.39033253,3.833820043,K1Y1Sn1,0.580415995,106.8590787,,2.50319433,-11.31037374,520,0.0002017
mp-962073,216,-0.855880652,3.726506192,K1Ba1Sn1,0.498717561,131.5129138,,2.02591605,-6.94493901,520,0.0033359
mp-962074,216,17.21703595,7.21113391,Y1Tl1Cd1,0.373597472,93.4223308,,3.04976303,-9.55261812,520,0.0003462
mp-962075,216,19.280708,3.472804745,Sr1Mg1Sn1,0.709355936,110.2792842,,2.35783536,-6.86978982,520,3.00E-06
mp-962076,216,23.21181138,3.902547036,Sr1Cd1Si1,0.742468956,97.06387917,,1.55488678,-6.87008848,520,0.0070603
mp-962077,216,3.559606798,7.862488065,Ti1Au1Cl1,1.230351306,59.19586604,,5.54373228,-12.18213043,520,0.0006855
mp-962078,216,7.898143177,4.015647979,Ca1Cd1Si1,0.243274231,74.67064056,,3.65179096,-8.71288545,520,0.0004016
mp-966800,186,0.420061502,4.569158635,In2P2,0.005902545,105.9682676,,4.72475801,-17.13894736,520,0
mp-971631,123,-5.724140417,4.839359206,Ga1P1,0.57909069,34.55228211,,5.56189218,-8.10110504,520,0.0009769
mp-971633,194,2.100515961,4.550409278,Na2Fe2O4,0.387383675,80.89095177,,3.85479478,-43.41333012,520,4.9995039
mp-971648,44,6.541215108,4.978051491,Ga1P1,0.48103278,33.58962936,,6.0204425,-8.29722086,520,0.0001303
mp-971657,2,0.426979474,14.10506362,Au6N2,0.690165722,142.4269654,,3.52158585,-30.02650548,520,1.13E-05
mp-971684,63,0.65019676,1.943883709,C12N16,0.078422021,314.5607872,,1.9131172,-235.7494214,520,0.0012774
mp-971700,221,3.789108676,8.463479026,Zn1Au1O3,0.783151317,60.89549685,,1.66119681,-18.09130916,520,2.7257819
mp-971701,225,0.897392771,6.438214728,Zn1As3,0.482884524,74.84138751,,5.43508669,-13.7799927,520,0.0004954
mp-971703,221,1.684813706,7.402434565,V3Ag1,0.375631525,58.47946402,,5.34401473,-28.58908584,520,0.8495933
mp-971704,221,1.290278905,5.347425337,Zn1B1O3,1.126698547,38.5735485,,4.47087744,-25.89107513,520,0.0007482
mp-971712,115,5.761513148,4.353168253,Zn1Cd1S2,0.017617962,92.2931064,,1.40087114,-13.27130997,520,4.36E-05
mp-971720,221,4.766246176,6.327811709,Zn1Ga3,0.073658721,72.0545284,,3.43455369,-10.08989226,520,0.0002211
mp-971724,123,2.375784852,4.623131521,Ti2Si2O5,0.834299056,83.29469381,,10.58010577,-67.1112048,520,1.1032119
mp-971733,221,2.136890336,5.420391917,Zn1Ga1O3,0.730549557,56.10200354,,1.6536039,-22.81180659,520,1.0020361
mp-971737,225,0.883841213,11.87152635,V2Os1Ru1,0.002531394,54.99677986,,7.84784074,-39.62117978,520,0.8345891
mp-971738,225,1.350863196,8.797685609,Zn1Cu1Ni2,0.01141551,46.49633941,,6.24311552,-17.38414236,520,0.0008295
mp-971739,225,0.76373652,15.22556874,Zn1Cu1Pt2,0.001790489,56.61686751,,6.02947605,-18.94460394,520,3.82E-05
mp-971740,194,6.340427173,3.909191454,Sr6As2,0.378335292,286.9644736,,3.36177133,-22.06047677,520,0.0032832
mp-971744,225,1.579575361,8.736380851,Zn1Co3,0.087927455,46.03700526,,4.87490168,-22.35253726,520,4.4524522
mp-971750,225,7.107781812,13.95357431,Tl3Ir1,0.543061949,95.84233755,,7.14172682,-13.79320236,520,0.0003355
mp-971751,65,-15.84201394,9.323337561,V2Rh2,0,54.80203801,,6.78208275,-34.43215286,520,0.00050135
mp-971752,225,1.027010263,7.033962312,Zn1Cr3,0.229807269,52.26625388,,5.22856978,-29.26370933,520,3.4599869
mp-971753,221,1.912415361,6.24990409,Zn1Ge3,0.271918865,75.27777368,,3.81043882,-14.05338998,520,0.0005444
mp-971754,225,0.937639228,13.64319452,V2Re1W1,0,57.43949395,,6.69062236,-44.53358378,520,2.13E-05
mp-971757,225,8.111886466,10.86086917,Zn1Hg3,0.126152661,102.0062721,,1.6778942,-1.67928753,520,8.50E-05
mp-971758,221,1.408948846,8.820382246,Zn1Ni3,0.028969717,45.46313676,,6.46615557,-18.99570731,520,1.2892701
mp-971761,221,0.826849372,4.09389197,Zn1Si3,0.464616639,60.70639077,,8.00065761,-15.69045974,520,0.0003682
mp-971763,225,1.802645418,7.052035731,Zn1Sb3,0.28286374,101.4141059,,7.04676548,-12.57849322,520,0.0003017
mp-971779,139,0.20697536,11.03001574,Zn1Rh3,0.01733539,56.32358224,,5.76224356,-24.03598763,520,0.0006389
mp-971787,164,11.70323705,4.06590569,V1Br2,0,86.07129607,,2.33316968,-14.89057437,520,2.9998258
mp-971794,194,0.703428607,2.676557747,Y2Mg6,0.001802005,200.7876267,,3.15276331,-23.21537472,520,0.00093075
mp-971803,221,0.61422307,11.65934597,Zn1Hg3,0.137235534,95.0204908,,2.13667584,-1.63495604,520,0.0003591
mp-971819,225,3.298130573,7.827262396,Y1Lu1In2,0.001465213,104.6969771,,5.93411905,-18.22569698,520,1.97E-05
mp-971820,186,3.584144199,5.333617848,Zn2H2,0.344490446,41.35576448,,2.14523081,-7.64716519,520,0.00136315
mp-971826,225,6.216076293,9.767067252,Tl3H1,0.418618627,104.4154856,,4.74373186,-8.66688542,520,0.0017924
mp-971827,225,1.659331574,11.55920522,Zn2Cu1Pt1,0.003976829,55.94620006,,5.21962391,-14.06047562,520,3.44E-05
mp-971835,139,8.270898292,9.462267142,Tl3H1,0.408721979,107.7789345,,4.69972393,-8.70647201,520,0.0017179
mp-971836,225,1.052249451,12.02932178,Zn2Ni1Ir1,0.005543503,52.69415206,,5.55899666,-18.007736,520,0.0004285
mp-971853,221,-0.045425789,6.78589621,Zn3B1,0.616816027,50.66312114,,4.02688725,-8.02974296,520,0.0005585
mp-971857,221,0.266882722,6.787981807,Zn3C1,1.042755217,50.94103672,,3.89344242,-8.87293319,520,5.74E-05
mp-971863,186,1.728311589,4.046571771,Zn2P2,0.319712377,79.10268154,,2.54204197,-12.91518169,520,0.0006297
mp-971891,225,1.387037564,11.73216517,Zn2Pd1Au1,0.003332315,61.4561445,,4.46968964,-12.52232981,520,1.75E-05
mp-971901,194,5.295475297,9.975044796,Zn2Pb6,0.134713564,228.7318581,,5.92167927,-23.75830658,520,0.00182405
mp-971909,194,2.235927292,10.53552531,Zn2Pd6,0.036038406,121.2579103,,4.11063288,-36.10175936,520,0.00471465
mp-971911,186,1.103585343,5.434305774,Zn2N2,0.473272658,48.53347446,,,-16.66513433,520,1.22E-05
mp-971914,198,1.669352296,7.33551091,Sr4Si4Pt4,0,281.4135808,,4.73919518,-64.62939354,520,0.000240575
mp-971919,194,3.179609701,6.861012049,Zn2Sn6,0.127182107,204.0462723,,6.7429655,-25.58458146,520,0.0027786
mp-971933,187,0.508887308,5.454245693,Y1Zr1,0.115081735,54.84033266,,3.56213332,-14.78474264,520,0.0023318
mp-971944,225,0.723688922,2.340181056,Sr1Mg3,0.073764933,113.9119702,,2.6570669,-6.54820091,520,0.0005239
mp-972036,186,0.401042896,13.75785207,W2N2,0.138017321,47.75922399,,6.88956139,-42.85954286,520,0.0005683
mp-972042,194,6.875259097,7.844755419,Zn6Cu2,0.009507726,109.9749285,,4.23062095,-16.34954522,520,0.000199
mp-972048,225,6.680672682,6.977977238,Zn6Mo1,0,116.222406,,2.34626739,-18.69601986,520,0.2329921
mp-972066,221,1.095620571,5.572820422,Zr1Al1O3,0.517023738,49.52389915,,9.01552662,-39.80569733,520,0.0042854
mp-972087,221,0.69187641,5.123157649,Zr1H3,0.118222845,30.54799311,,4.30865604,-19.75386629,520,9.12E-05
mp-972095,194,4.759163382,9.555213487,Zn6Hg2,0.110696966,137.9205438,,3.31892983,-7.35876612,520,0.00096185
mp-972119,225,7.026469177,6.901826083,Sr1Ca1Tl2,0.009074445,129.0702491,,4.47609544,-10.12839885,520,0.0005662
mp-972130,194,29.57881746,10.40090001,Tl6Cr2,0.452043609,212.3856395,,6.02092207,-29.86030538,520,4.42352115
mp-972175,63,12.22310806,6.93928539,Zn6In2,0.116872073,148.8632724,,4.47795541,-12.20570104,520,0.00027215
mp-972183,225,0.331034384,9.158028069,Zr1Ga1Pd2,0.01437893,67.77527886,,5.20719906,-24.82555059,520,7.90E-05
mp-972185,221,13.95469986,11.29215506,Tl3Hg1,0.034302852,119.662444,,5.02529526,-7.32026737,520,0.0001341
mp-972187,62,0.740052718,10.45133472,Zr4Si4Pt4,0,199.8070849,,7.57287447,-94.0731074,520,0.00029015
mp-972204,225,0.874142093,8.83916811,V2Mo1Ru1,0,56.15047582,,7.55647148,-39.34538291,520,0.0001024
mp-972205,225,0.847108966,11.42040048,V2Mo1Os1,0,56.42334148,,7.57578302,-41.47353919,520,3.75E-05
mp-972209,225,0.583767934,16.0368216,Ta2Tc1W1,0.000621019,66.65587405,,6.56658544,-48.16623528,520,0.0004754
mp-972217,225,0.780573575,7.244298829,Ti2Cu1Tc1,0.013064731,58.97375223,,7.0311112,-31.48660562,520,0.0001641
mp-972220,194,4.165147204,17.0474691,Ti2Pt6,0.011747305,123.3401639,,7.70872378,-58.91974853,520,8.97E-05
mp-972222,221,0.951145506,9.864050398,Ta1Be1O3,1.006708841,40.058492,,8.31834035,-38.88847499,520,0.0006385
mp-972224,62,1.309127529,12.60101206,Ta4Ge4Rh4,0,187.9122636,,6.48254347,-101.8542062,520,0.000708525
mp-972236,225,0.683418853,10.85055103,V2Mo1W1,0,58.40867527,,6.66380942,-42.36706796,520,0.0001502
mp-972237,225,0.192120976,9.484985199,Tc3H1,0.67283818,51.64712345,,7.10936693,-31.62381452,520,0.0010578
mp-972238,225,1.147131009,9.353110103,Ti2V1Ir1,0.000862535,60.16653503,,7.06357796,-35.89429271,520,1.7774646
mp-972241,225,0.920132861,10.41810185,Ti2Re1Tc1,0.012027915,60.55871522,,6.82381638,-40.35907555,520,5.58E-05
mp-972249,194,14.42075208,4.740561027,Sr6Bi2,0.177624232,330.555561,,3.37393704,-21.14435425,520,0.0080809
mp-972275,225,0.810063914,10.64347611,Ti2Re1Ru1,0.012054985,59.75535735,,6.85206897,-39.80105382,520,0.0004854
mp-972323,225,0.758439421,11.97658166,Ta1Nb1Tc2,0,65.14474362,,7.13291675,-44.34876401,520,1.53E-05
mp-972327,225,0.877016458,10.39206146,Zr2Co1Os1,0,68.96680143,,5.6204145,-37.10750905,520,1.0214641
mp-972328,225,0.75120684,10.70801307,Ti2Ir1Rh1,0.020110038,60.61184958,,7.87261651,-35.11540126,520,0.0001394
mp-972337,225,0.592877556,12.73920626,Ti2Ir1W1,0,61.49734594,,7.17921612,-39.63959613,520,0.0006218
mp-972373,194,3.534575037,10.90431763,Tl4,0.020760985,124.4961712,,5.73080201,-9.38578708,520,2.02E-05
mp-972396,225,0.875315986,9.754200007,Ti2Mn1Re1,0.024613786,57.34973709,,6.31398349,-38.58716931,520,0.8556313
mp-972692,187,1.30101936,9.033136078,Sn1Pb1,0.050183003,59.91122838,,7.18971851,-7.62409168,520,0.0002898
mp-972733,194,0.041617966,3.257263431,Si6B2,0.923308014,96.93001412,,10.3049306,-38.63156601,520,0.00047405
mp-972741,225,0,3.294804217,Si3P1,0.626708737,58.07457319,,9.90117627,-19.48706622,520,0.0003685
mp-972748,194,0.407642398,7.764580072,Si6W2,0.657671846,114.6706456,,9.92217093,-55.26952417,520,0.00020695
mp-972751,225,0.491705207,4.100351699,Si3Ge1,0.538603511,63.53912606,,8.10549586,-18.74443163,520,0.0007636
mp-972752,225,0.298202114,4.124357526,Si3As1,0.608694961,64.08790889,,8.71848069,-18.68174343,520,6.53E-05
mp-972767,225,2.140121592,3.206540365,Si3F1,0.785349881,53.47158568,,8.26652234,-18.92419402,520,0.0002456
mp-972784,194,0.304484101,9.510101063,Si2Tc6,0.151111832,112.4773635,,9.49203533,-73.88576627,520,0.000795
mp-972793,123,2.761867473,3.321345612,Si2B2O5,1.707446126,78.88864507,,8.19612607,-54.6476695,520,0.0003894
mp-972794,194,0.675813535,6.519548943,Si2Sb6,0.458041674,200.3815833,,8.18584363,-31.95296724,520,0.0007949
mp-972808,4,7.676675363,2.300419039,Si4O8,0.015443412,173.485481,,0.12029326,-94.79860325,520,0.000552275
mp-972810,225,0.205939601,11.8208535,Si1Tc2W1,0.000276379,57.30349488,,9.20761749,-40.1715515,520,0.0001516
mp-972827,221,1.470119434,8.58305411,Si1Bi1O3,0.724684024,55.15053976,,10.60404758,-31.17677669,520,7.41E-05
mp-972828,139,1.431538811,7.587902267,Cu3Si1,0.032387119,47.86552303,,8.7121538,-17.85872671,520,5.52E-05
mp-972831,4,2.464288022,3.707113969,Si2Ge2N4O2,0.045336392,129.6661499,,2.55977896,-74.15110788,520,2.94E-05
mp-972837,225,4.329002382,9.670832899,Si1Bi3,0.435818864,112.4719472,,6.67624634,-15.37682584,520,0.0005662
mp-972861,225,1.996195101,8.25177211,Sc2Tl1Tc1,0.037140221,78.94320879,,6.53248604,-26.1222421,520,0.0001785
mp-972866,225,1.835508823,8.557766115,Sc2Pd1Au1,0.003599145,76.31516533,,5.22679912,-24.5092054,520,0.000109
mp-972868,194,1.126293458,14.69485811,Si2Au6,0.16160054,139.8923479,,6.19891764,-29.20081554,520,2.69E-05
mp-972869,225,0.056211414,7.937490915,Sc2Ga1Pt1,0.003965854,74.20789035,,5.40282618,-25.39240338,520,7.55E-05
mp-972877,225,0.34528701,7.134758419,Sc2Al1Ir1,0.032009321,71.94214501,,6.43932582,-28.19307282,520,0.0002584
mp-972879,225,2.549386719,8.8958347,Sc2Ru1Au1,0,72.41630199,,5.7765137,-27.92055416,520,0.0001448
mp-972882,225,2.736573634,6.020268918,Sc2Cd1Ag1,0.007971665,85.55835499,,3.77567102,-17.51952302,520,0.0007695
mp-972884,225,0.674541529,4.019697516,Sc2Al1Cu1,0.0177743,74.5395903,,5.29869213,-21.8771501,520,8.14E-05
mp-972889,194,5.692781735,6.625009307,Sc2Sn6,0.096298077,201.0620014,,7.89580783,-38.75101442,520,0.00015585
mp-972895,194,9.826791251,14.17593181,Sc2Au6,0.060431861,148.965598,,5.37457354,-37.0176788,520,0.0010488
mp-972898,225,0.639528854,7.520523935,Sc2Ga1Au1,0.007240511,78.73793634,,4.82906443,-21.74375301,520,0.0001656
mp-972899,225,0.367134879,8.172054449,Sc2Ga1Ir1,0.030108014,71.49532516,,5.76641393,-27.74818324,520,0.0002439
mp-972907,225,2.69801007,4.605365279,Sc2Al1Ag1,0.003065173,81.04142165,,4.7259474,-20.68215746,520,0.0001488
mp-972914,225,2.527850171,4.537236764,Sc2Al1Cd1,0.009440355,83.92086768,,4.57590177,-18.77450025,520,0.0010444
mp-972916,51,-1.535347172,4.684725435,Mg2Cu2,0.033590959,62.27900321,,5.17259408,-11.77146646,520,1.33E-05
mp-972925,225,1.493928959,9.268231387,Sc1Zn2Au1,0.021260167,66.78190203,,4.55684992,-13.95594261,520,5.20E-06
mp-972935,225,1.375701979,6.851210431,Sc1Zn1Ni2,0.012251937,55.20055368,,5.59352228,-20.81578015,520,0.000502
mp-972937,166,2.056664364,3.512440994,Sc2Al2C2O2,0.014909292,94.50226211,,6.7291965,-62.07793885,520,0.00037995
mp-972941,194,0.514179756,8.796913661,Na2Bi6,0.054141324,245.3669069,,5.26559022,-26.78148517,520,0.00046385
mp-972954,189,3.110684852,6.243691842,Mg2Cd4,0.035744947,132.5129811,,3.18504634,-7.16072405,520,0.00151665
mp-972957,225,1.219049288,7.862718743,Sc1Ti1Ru2,0,62.29364763,,6.44660795,-35.39425298,520,0.000109
mp-972960,225,2.291559593,11.03489964,La2Ir1Au1,0.059107531,100.3697775,,8.27926191,-24.81593347,520,0.0002275
mp-972961,225,0.930746306,6.304869651,Sc2Ni1Rh1,0.022505233,66.24139741,,5.82130564,-28.79683129,520,0.0007884
mp-972966,225,2.601482874,10.96332378,Sc2Os1Au1,0.006184561,72.2643177,,5.75269863,-29.49715234,520,0.0003847
mp-972970,225,0.348174782,7.862932438,Sc1Si1Rh2,0.033095776,58.88964711,,7.96963951,-30.19140829,520,0.0056559
mp-972971,225,7.399223936,11.2618027,La1Tl1Hg2,0.00817744,109.77101,,5.9467657,-9.53733173,520,0.0001128
mp-972978,221,0.835479186,4.401661714,Sc1V1O3,0.804807664,54.28501711,,6.37238827,-38.70218677,520,2.0022928
mp-972981,63,2.584137987,0.884749284,K2,0.013065332,146.7630541,,-0.10347872,-2.19453798,520,0.00036325
mp-972985,221,3.142880921,4.766059151,K1Pd1O3,0.151918312,67.42293643,,1.02429327,-23.22367604,520,2.1264177
mp-972987,221,5.754464747,9.4196025,Mn3Tl1,0.489552331,65.08414281,,6.26729133,-27.88674621,520,10.1368801
mp-973019,164,2.899082041,6.188948239,Li1Sm1Cu2P2,0,92.92563761,,6.34021042,-30.4575657,520,0.00011
mp-973053,225,0.513992343,2.946582954,Sc1H3,0.037017893,27.03885122,,5.4872567,-18.20493015,520,0.0011253
mp-973055,221,6.038391122,14.42208829,Hg3Au1,0.162263627,91.96540952,,2.86489205,-3.53583132,520,0.0001581
mp-973056,225,8.717472513,5.622878264,Na2Cd1Hg1,0.013374043,106.0135345,,1.66588085,-4.46366375,520,0.0020536
mp-973058,225,0.828615621,7.026744405,Li1Lu2Al1,0.006349402,90.71181921,,3.13626278,-15.49215737,520,0.0007735
mp-973060,221,0.95264752,3.444514158,Mg1Cr1,0.579573774,36.78340386,,3.94642097,-10.09740916,520,3.7944615
mp-973065,194,2.475226535,4.825251169,La2P6,0.44034378,159.5595194,,8.81428834,-45.46065757,520,0.0008125
mp-973066,225,0.204774166,8.760479597,Sc1Ge1Rh2,0.008637094,61.30141589,,6.71614743,-29.03934148,520,0.002364
mp-973067,225,0.739229442,7.532531316,Sc1Ga2Ru1,0.000564059,62.9319992,,5.59336166,-23.76750848,520,7.91E-05
mp-973068,221,2.557167083,5.012149709,Sc1Cu1O3,0.566154862,51.8489193,,5.50029807,-32.3709066,520,0.0002792
mp-973088,225,4.775422632,7.566061553,Mg1In1Ag2,0,77.88172001,,5.60141351,-10.62817247,520,8.27E-05
mp-973099,225,1.666395865,8.462730415,La2Pd1Ru1,0.068670378,95.2247227,,7.88241933,-26.11911289,520,2.20E-05
mp-973100,225,2.379924358,6.878837594,Sc1Cu3,0.04043337,56.8719472,,6.01092149,-19.23411855,520,0.0003114
mp-973111,194,2.864787346,6.741289591,In2,0.038064222,56.56477709,,6.72101407,-5.42758823,520,7.80E-05
mp-973123,221,2.809975822,4.879050918,Sc1Pd1O3,0.82048538,67.85510177,,1.30415514,-31.98422406,520,3.0002072
mp-973126,225,2.313272384,10.00411215,Sc1Bi1Pd2,0.07391873,77.47816871,,6.49222492,-23.27910165,520,0.0002076
mp-973133,225,0.931245269,8.497007594,Sc1Cu1Pd2,0.008371899,62.79867167,,5.49011266,-23.36559243,520,0.0002209
mp-973141,225,2.994050137,7.241547332,Sc1Cd1Cu2,0.001611805,65.22848046,,4.92119983,-16.24612592,520,0.000484
mp-973142,225,1.143497497,7.322712104,Sc1Zn2Pd1,0.028253148,63.99186545,,4.06982742,-16.20798402,520,6.55E-05
mp-973143,225,2.91731361,6.149157161,Sc1Zn3,0.017398208,65.12984311,,3.8096714,-11.29411779,520,7.28E-05
mp-973149,225,1.494474363,6.821166762,Mn3Al1,0.075719355,46.6905758,,7.19142018,-31.45020981,520,2.717147
mp-973153,225,0.800320975,11.71371449,Sc1Al1Pt2,0.011994618,65.50818206,,,-26.67896292,520,5.17E-05
mp-973155,194,1.42001486,5.974349649,Ge6C2,1.39378878,127.8160557,,4.54100544,-35.03711415,520,0.00037875
mp-973156,221,2.032482439,4.55076315,Sc1As1O3,1.043685526,61.25657707,,6.5544444,-32.53734312,520,0.5729545
mp-973157,194,0.994231347,5.637952346,Ge6P2,0.432695551,146.6127357,,,-35.09450152,520,2.00E-07
mp-973166,194,26.60494846,6.254347987,Na2Cd6,0.004478146,191.279402,,2.01902309,-8.76705849,520,0.0013804