material_id,spacegroup.number,delta_volume,density,full_formula,e_above_hull,structure.lattice.volume,band_gap.optimize_structure_gap,efermi,final_energy,encut,total_magnetization
mp-24513,194,10.00010061,4.388771814,Y2H6,0.186346259,69.56515966,,4.39108667,-36.56465643,520,3.97E-05
mp-24589,11,10.40421875,2.414584778,K4H2Br2O2,0,240.8476797,,-1.11541005,-39.39089831,520,1.28E-05
mp-24591,14,27.45420469,3.611888638,Zn4H8Se4O16,0.020624165,386.8871456,,0.03504581,-158.987747,520,2.95E-06
mp-24610,33,11.65908414,2.023929363,Li4P4H8O16,0,341.0729769,,-0.69166986,-194.8103313,520,0
mp-24650,225,0.202632993,4.262589491,Y1H2,0,35.41956892,,3.37798764,-15.33922104,520,5.77E-05
mp-24657,2,14.33549233,2.582268587,Zn2B2P4H8N2O16,0,365.5136136,,0.04815892,-217.8783314,520,0.0015929
mp-24669,186,2.261638064,5.936732402,Cr2H2,0.165278405,29.65108472,,5.68626457,-25.30081346,520,5.75E-06
mp-24719,225,-0.289334081,7.751649716,Ni1H1,0,12.78907193,,7.87957692,-9.24218458,520,0.0001719
mp-24721,225,0,2.610597039,Rb1H1,0,55.0051732,,-1.07328045,-4.66763226,520,0.000108
mp-24722,225,5.585855468,10.32197338,H1Rh1,0,16.71698982,,6.50027943,-10.63908755,520,0.0025547
mp-24723,225,0.410449552,12.9809288,Ta1H2,0,23.40498674,,6.1505058,-18.91213004,520,0.0002388
mp-24728,225,-0.716703567,4.697637116,V1H2,0,18.71958067,,5.69265305,-16.47684953,520,0.0003703
mp-24809,194,-1.005170409,2.077239518,Ca2H4,0.055924374,67.29944281,,3.11938647,-20.57449992,520,5.35E-05
mp-24813,65,0.650328786,7.229225809,La1Fe5H2,0.194858464,96.50679549,,6.14390151,-54.33620562,520,11.1598303
mp-24841,225,0.188371229,8.730045223,Co1Te1Pb2O6,0.130636211,132.5627498,,6.7924692,-55.33034266,520,3.0005762
mp-24842,129,4.450524916,3.619663735,K2Co2O4,0,119.3041106,,,-41.95721484,520,4.0000025
mp-24844,148,5.404016009,5.285072602,Mn2Co2O6,0.026858807,101.7168712,,,-67.55454602,520,5.98007315
mp-24854,167,2.005692509,4.075423778,Co2C2O6,0,96.92635809,,2.66141066,-71.33084546,520,2.9999933
mp-24860,12,0.647102996,3.960762939,Co2P2O7,0.011756985,122.3404253,,2.87166031,-75.92782265,520,5.9998886
mp-24864,216,3.357869145,5.136134319,Co2O2,0,48.45219834,,2.85061034,-24.25875691,520,1.5000078
mp-24868,227,4.129715087,4.921084932,Cr4Co2O8,0,153.1428526,,3.11142279,-104.6278876,520,9.0009993
mp-24893,2,19.70511639,3.809733028,Cr4Co3P6O24,0.009125152,416.0844718,,,-270.8680506,520,21.0000006
mp-24897,223,48.24827126,4.020374181,Cr6O2,1.771705221,142.0724924,,6.68942599,-47.86697414,520,10.19226175
mp-24899,227,3.09857127,7.060928275,Cr4Hg2O8,0,173.3599673,,2.3839444,-91.33790609,520,6.00002915
mp-24913,221,-3.963501042,8.483062065,Cr1Pb1O3,0.150995993,60.13254697,,5.40414392,-32.77294625,520,1.9994181
mp-24914,221,3.275234654,5.279508314,Sr1Cr1O3,0.093218137,59.00944767,,,-34.8049957,520,1.9982396
mp-24927,160,0.690154314,3.878272958,Cr1H1O2,0,36.39520371,,2.29701246,-27.41516079,520,3.000044
mp-24932,161,-9.685425337,8.007891675,Fe2Bi2O6,0.026033656,129.7359708,,4.70814413,-62.14607484,520,5.00002885
mp-24934,194,6.855069647,5.877028565,In2Fe2O6,0.032752445,123.5642996,,,-61.52748942,520,4.99428465
mp-24938,162,15.34578851,4.349907268,Ba1Sr1Fe4O8,0.011646499,220.0059573,,1.36199934,-91.84722155,520,19.9999427
mp-24940,227,0.823871264,5.530885547,Cd2Fe4O8,0,172.9918179,,1.91192995,-83.36812365,520,10.00004
mp-24942,160,-51.84124765,7.678745575,Fe1Bi1O3,0.062654074,67.64852349,,4.44191882,-30.88993533,520,5.0000516
mp-24943,12,-0.693035015,2.746230115,K1Fe1S2O8,0,173.5792091,,0.04589127,-73.58118173,520,4.9998804
mp-24947,123,4.213253281,5.745899976,Ba1Y1Fe2O5,0.046420832,120.7769417,,,-64.94953618,520,9.0000632
mp-24948,150,-1.537319449,3.328581912,Rb1Fe1Se2O8,0,213.1324365,,-0.91359127,-65.32023128,520,5.0000212
mp-24964,123,2.815921409,5.010560881,Sr1Fe1O2,0.010938783,58.1500748,,,-25.43801027,520,4.0010139
mp-24972,167,2.913093341,5.03022615,Fe4O6,0.000308179,105.4300473,,3.30860342,-67.16532048,520,10.00003785
mp-24973,181,-0.164995474,2.53114951,Fe3P3O12,0.009336449,296.8253626,,-0.94396009,-127.7276266,520,4.9998507
mp-25005,148,1.141181782,5.845874272,Mn2Sn2O6,0,125.9186311,,4.9045169,-69.37084774,520,5.00006195
mp-25006,63,1.632362638,3.307880184,Mn2S2O8,0,151.6031126,,2.08497331,-81.83678196,520,4.99980195
mp-25010,59,5.07267948,4.015599125,Na2Mn2O4,0.004011562,90.91417188,,,-50.75092158,520,4.0000007
mp-25012,148,3.612885589,4.601686233,Mn1Sn1B2O6,0,105.1047982,,,-75.40406809,520,4.9999997
mp-25014,148,-10.22951176,5.328042714,Mn2Ge2O6,0.022305235,109.4402673,,3.42275451,-70.77532317,520,5.0000815
mp-25032,55,7.802244751,5.399927202,Mn4Ge2O8,0.062176324,151.6115276,,,-101.9615517,520,10.00000105
mp-25047,12,5.638808574,2.97689379,Mn1H4Br2O2,0,139.8855224,,,-43.56684628,520,4.9999994
mp-25053,225,4.466919119,5.567568604,Sr2Ni1Mo1O6,0.0096261,127.0165631,,3.50040164,-64.30028566,520,2.0002119
mp-25054,88,-86.63401544,6.475805853,Mo2Pb2O8,0,188.2843098,,3.32759509,-79.96510639,520,5.03E-05
mp-25057,85,5.966509154,3.582380973,V2Mo2O10,0.016379309,210.3297273,,0.80314027,-102.6686589,520,0.9998752
mp-25068,70,-0.395646965,3.061572386,Na4Mo2O8,0.018186545,223.3711338,,-0.49807581,-84.58144992,520,5.58E-05
mp-25089,87,5.232420481,6.681593509,Sr2Ni1W1O6,0,127.684333,,2.91671821,-66.43661727,520,2.001126
mp-25092,12,4.130856708,4.752723496,Ni2As2O7,0.030660371,132.4965036,,2.29156562,-61.97353142,520,4.0005202
mp-25094,13,6.542159701,7.575692683,Ni2W2O8,0,134.3789179,,2.73496349,-79.93250615,520,1.99949645
mp-25097,123,0.565050001,7.131113781,La1Ni1O2,0.405598806,53.46372338,,,-26.05571385,520,0.9341014
mp-25100,227,4.620420425,5.873848828,Ni4Ge2O8,0,143.6255667,,3.89589902,-78.64620298,520,4.0002896
mp-25110,166,1.56448173,7.148316154,V2Pb3O8,0.032459491,197.7966226,,3.11636603,-86.42283854,520,0.0004563
mp-25113,63,1.659632761,4.455451574,V2In2O8,0,171.2601418,,1.3843415,-80.95488412,520,0.00085105
mp-25119,99,-39.79429075,6.967948058,V1Pb1O3,0.025884444,72.95647432,,4.30625917,-34.41451739,520,0.9943533
mp-25142,5,3.048356448,6.709294177,V2Pb3O8,0.003125318,210.7394244,,2.59248245,-86.80418279,520,0.0006744
mp-25145,62,1.171178772,4.059460612,V4O8,0.046337903,135.7082818,,,-92.74023276,520,0.999999125
mp-25172,225,21.58831817,6.32195595,Ba3W1O6,0.055181162,181.7143002,,1.68697828,-67.89334947,520,0.0001991
mp-25173,225,3.715467249,9.04118907,Mg1Pb2W1O6,0.010748438,131.9700359,,4.62348206,-64.40954835,520,1.42E-05
mp-25174,223,6.320553424,15.25931376,W6O2,3.178457796,123.5164483,,6.64114376,-40.90802242,520,0.0018103
mp-25201,129,32.61966752,7.446316219,Bi2Pd4O8,0.158983274,216.6762011,,2.52834629,-76.39400069,520,0.2309871
mp-25214,194,18.31861547,5.224982525,Nb2O4,0.285620488,79.39162541,,2.09706712,-52.92235827,520,0.00037935
mp-25262,227,0.920914322,3.531485145,Ti4O8,0.178691823,150.2147379,,0.99161233,-105.5360827,520,3.25E-07
mp-25317,5,1.509310534,3.517247127,Li3Cu2O4,0.032393312,100.0467504,,1.9118593,-44.98126279,520,0.9677958
mp-25372,166,8.21998342,4.745681471,Li1Cu1O2,0.073650905,35.86032333,,3.48827226,-20.00408121,520,0.0004488
mp-25378,166,1.045766452,4.631568314,Cu1O2,0.162871963,34.2553234,,1.68511203,-14.18445083,520,0.9433955
mp-25380,2,-10.29845631,3.488984785,Cu2P2O8F2,0.118854604,168.972854,,0.40236013,-80.17144482,520,2.17E-05
mp-25385,227,6.232435221,4.599650845,Li2Cu4O8,0.03525826,142.9836975,,2.53758962,-69.44988746,520,0.00401275
mp-25405,2,-1.818904129,3.466609789,Li2Cu2P2O8F2,0.047692411,176.7130877,,,-94.19751399,520,0.99999985
mp-25417,166,3.707501827,3.904592758,Li1Ti1O2,0.021227446,36.91705878,,6.12924399,-30.15513128,520,0.0043331
mp-25433,166,0.091052648,3.500431418,Ti1O2,0.152422224,37.88683823,,1.0665404,-26.46282946,520,1.00E-07
mp-25435,62,1.203939474,3.165304031,Ti4P4O16,0.088400818,299.7357274,,4.79641135,-191.9338669,520,0.9990356
mp-25436,2,1.183535885,2.97843225,Ti2P2O8F2,0,180.4548462,,,-107.8675221,520,0
mp-25449,62,1.221978768,3.800004988,Li4Cu4P4O16,0.05159238,289.21022,,3.33892903,-174.8589425,520,1.013436825
mp-25475,12,6.121741675,3.245942308,Co1H4Br2O2,0,130.3345547,,,-39.72672704,520,2.9999998
mp-25476,166,0.45797675,4.546531623,Co2O4,0.013915339,66.42255689,,0.54750825,-34.14802486,520,0.4974906
mp-25479,65,0.655201176,6.793980225,La4Co1O8,0.038504628,181.4891536,,6.7976501,-100.7288088,520,3.0007135
mp-25487,2,-3.546123534,3.373669548,Li2Co2P2O8F2,0.012518984,177.0404083,,,-100.0426828,520,4.00000015
mp-25489,164,0.005674264,3.772880804,Co1H2O2,0.186348376,40.90868044,,,-26.0828483,520,3.0000003
mp-25499,166,1.393018587,3.786397967,Cr1O2,0.221988727,36.83627866,,1.0721132,-21.58993039,520,2.0000227
mp-25501,2,-2.55063401,3.225401209,Li2Cr2P2O8F2,0,178.0358978,,1.64560102,-110.8151761,520,2.99972025
mp-25503,31,3.164990512,4.293478316,Cr2H2O4,0.013007601,65.75113413,,,-54.72626077,520,2.99999975
mp-25507,62,12.83230566,3.283243187,Li4Cr4P4O16,0.005094883,311.3640936,,4.11519088,-199.6990242,520,4.0011327
mp-25515,2,0.817932974,3.235971607,Li2Fe2P2O8F2,0,181.4044648,,1.14357201,-104.8366828,520,4.99972425
mp-25516,227,14.1049466,4.020542773,Li2Fe4O8,0.017533372,150.8562088,,2.81603547,-86.38937284,520,9.0001064
mp-25524,5,4.744465853,3.997930938,Fe1As2O7,0.08697578,131.9499243,,0.37861532,-59.97437417,520,3.946583
mp-25542,8,5.633930346,3.699770555,Li1Mn1O2,0.019923043,42.13445788,,,-26.40667487,520,4.0000003
mp-25544,12,4.113254313,3.008239889,K2Mn2O4,0.238946601,139.1420142,,1.11881171,-47.8875919,520,4.00004705
mp-25545,227,0.097391655,4.117354619,Mn4O8,0.031938121,140.2473564,,0.72857892,-85.1230702,520,3.000011425
mp-25546,164,1.358095724,3.169608837,Mn1H2O2,0.004871511,46.60179857,,,-30.57339115,520,5.0000002
mp-25547,166,1.575632054,3.086803917,Mn1O2,0.012918701,46.76747504,,0.87227503,-21.33782581,520,2.9997998
mp-25550,2,4.57359572,3.309467697,Mn2P2O8F2,0.032228883,169.5003781,,,-95.25611328,520,3.0000004
mp-25552,2,1.928924336,3.19977081,Li2Mn2P2O8F2,0,182.5154561,,,-108.5600174,520,3.9999996
mp-25558,164,-9.691304644,3.880672737,Mn1O2,0.013847838,37.20025751,,1.08837542,-21.3350384,520,2.9997208
mp-25559,63,-8.15263098,3.70785759,Mn2V2O8,0.023462588,152.1566697,,1.33637804,-89.87917568,520,4.0000679
mp-25571,166,5.341557852,5.053249914,Mo1O2,0.259773232,42.04173072,,4.24431964,-21.46939258,520,1.9999993
mp-25576,15,43.76978286,4.835120974,Li2Mo4O8,0.007208433,180.5210451,,,-96.31716647,520,5.00000015
mp-25579,12,8.139056458,5.168143047,Y1Mo3O8,0.110600809,162.1683069,,3.15184418,-91.59999132,520,5.0000167
mp-25589,2,17.04815719,3.285405932,Ni2P2O8F2,0.206040662,174.5379004,,,-79.22567971,520,1.50E-07
mp-25604,63,1.277237013,3.829381697,Ni2P2O8,0.07679439,133.267643,,2.81682329,-74.44627807,520,1.6328397
mp-25614,62,-0.81041592,3.750462921,Li4Ni4P4O16,0,284.4365013,,2.69071638,-175.6457176,520,2.000230975
mp-25616,2,-3.357157156,3.113354885,V2P2O8F2,0.003305163,175.9141531,,,-100.3101502,520,1.00000015
mp-25620,59,2.778431217,3.012184557,V4O10,0.014760901,200.5314315,,-0.56614902,-104.1669225,520,0.00061845
mp-25622,227,10.43344312,3.745175031,V4O8,0.159500127,147.0965762,,1.65570286,-91.38228608,520,0.999996925
mp-25637,62,8.330542138,3.308582129,Li4V4P4O16,0.006355991,306.86233,,,-200.6592627,520,3.000000275
mp-25647,166,11.93926231,8.193670649,Li1W1O2,0.32304686,45.14881926,,6.01049449,-25.94633701,520,0.0010265
mp-25651,2,4.977825876,4.966422118,P2W2O8F2,0,199.1472854,,,-100.4556065,520,1.99999995
mp-25652,2,6.184460088,5.010679421,Li2P2W2O8F2,0.058042079,201.9887926,,2.37029126,-108.9646101,520,2.99993315
mp-25654,62,13.83222072,5.928687539,P4W4O16,0.109586907,312.3640086,,2.94899711,-178.2386474,520,2.999153675
mp-25929,148,-4.155793186,4.203011045,Li6Bi4P6O24,0.038109758,571.8417487,,1.16826407,-262.1141944,520,8.48E-05
mp-26247,1,1.678837949,2.896045425,Li10Cu2P4O16,0.031448117,330.4899333,,3.72967537,-197.7994045,520,0.0039001
mp-26303,2,2.751640623,3.729023965,Li6Cu9P8O32,0.030725266,611.5459672,,2.80956364,-344.1720363,520,5.0024489
mp-26446,161,17.28001805,3.557818266,Sn8P6O24,0.088739105,709.1994173,,1.27404025,-251.9871205,520,0.510904
mp-26513,146,1.67157513,3.240235589,Li6Cu6P6O24,0.047855752,508.7594319,,1.6124539,-262.4453521,520,1.0001959
mp-26695,62,3.764749929,3.325036632,Li8Cu4P4O16,0.053273694,344.3882312,,,-195.0932805,520,0
mp-26835,1,0.185149631,5.107152575,Li3Bi5P6O24,0.040195201,531.7835828,,2.03378077,-252.7157696,520,0.000396
mp-27017,33,8.732186329,3.767551598,Li8Sn8P8O32,0.0052768,777.9100791,,2.57919069,-364.9719543,520,0.000103838
mp-27018,33,10.3376238,3.784219358,Sn8P8O32,0.055524935,750.1177076,,1.98211954,-324.5961635,520,0.0001967
mp-27047,31,0.46487789,3.410371867,Li4Cu2P2O8,0.0537095,167.8854285,,3.9774207,-97.53966735,520,6.60E-06
mp-27048,7,6.914968673,3.314008747,Li2Cu2P2O8,0.074951632,165.8113123,,1.58410405,-87.10244171,520,0.04394445
mp-27064,7,-1.12729637,3.215406349,Li2Cu2P2O8,0.048318412,170.8960173,,1.47901446,-87.47530679,520,1.01866595
mp-27122,2,3.126322299,3.628018056,Li4Sn8P12O48,0.003414391,968.9940124,,,-490.9310549,520,0
mp-27138,123,16.59365865,3.307793882,K2Pd1Br4,0,253.1288065,,-0.80989265,-22.22430954,520,0.001465
mp-27173,2,5.202102104,4.732493273,P12Ru3,0,236.8074649,,7.66088572,-99.45721576,520,0.000257667
mp-27175,70,8.473141768,6.288036838,In4O4F4,0,158.2528833,,,-62.3908744,520,0
mp-27178,2,31.81428069,4.241494625,Hg2P2S6,0,256.634167,,1.63629175,-38.07603574,520,0.0004211
mp-27179,186,14.16901694,4.1649329,Cs2Cr2Br6,0.059243271,338.582828,,,-42.2058555,520,3.9999999
mp-27193,160,5.640649238,4.364069895,Rb1I1O3,0,99.07158701,,,-22.12758622,520,0
mp-27213,14,215.8745795,4.846093838,Au8Br24,0,1197.041305,,-1.1579674,-70.32899538,520,8.54E-05
mp-27226,59,4.88199762,5.332294913,Mg2Cu4O6,0.059310763,124.1879976,,5.02009955,-64.18159943,520,8.50E-06
mp-27227,72,7.38261788,6.820704698,Li2Ag6O4,0,176.5269592,,1.55252382,-47.55845533,520,0
mp-27243,123,18.29396093,3.906929879,K2Pt1Br4,0.005887684,251.9952959,,-0.29539061,-22.77671542,520,0.0022111
mp-27249,8,8.555729625,3.513737981,Cu1C1O3,0.146515585,58.39016346,,1.36187093,-32.54853126,520,0.8280338
mp-27255,109,12.70676528,4.083763693,Ga4Te2S4,0,269.3254157,,2.40806449,-40.60193425,520,0.000172
mp-27259,194,10.96564216,4.595471684,Cs2Cr2I6,0.053236803,408.7614027,,3.32174595,-38.28433122,520,0.02654725
mp-27281,12,3.945099672,1.466811998,Li2H6O4,0,95.01180704,,-1.70024178,-59.63437319,520,0
mp-27294,221,5.911788805,3.400797335,Ca3As1Br3,0,212.3368598,,2.31076154,-28.09400693,520,1.59E-05
mp-27296,191,5.536833776,5.354130265,Zr2Ti4O2,0.358274537,125.8911044,,5.66126081,-67.1029765,520,0.00309285
mp-27300,12,25.66151556,4.752051408,Rb2Au2Br6,0,364.9137418,,-0.60188513,-26.95642512,520,0.00016245
mp-27303,72,8.889440869,6.259435969,Na2Ag6O4,0,200.8707305,,1.27794134,-45.22985237,520,4.50E-06
mp-27304,225,18.6390731,2.364226545,K2Mn1Cl6,0,242.913193,,-0.39049783,-35.07942921,520,2.9999348
mp-27311,12,1.876222019,5.313412801,La2C2O2,0.053802782,104.3283595,,4.48733302,-49.75296162,520,4.55E-06
mp-27315,225,-2.836075507,2.307558295,Ca1Ti1F6,0,145.3144858,,-4.00268038,-50.38336028,520,1.20E-06
mp-27330,12,4.383697094,7.868737095,La3Os2O10,0,201.9916048,,6.22473301,-121.5714981,520,1.0163306
mp-27335,129,9.169999359,2.069716497,Na2Al2Si2,0,125.2503684,,4.43845091,-21.55355615,520,2.65E-06
mp-27337,63,20.04296825,3.547947782,Xe2O4F4,0.53176519,188.4174231,,-4.21129258,-22.12727609,520,4.35E-06
mp-27363,194,8.805629269,5.483429596,Ba2V2Se6,0.036253082,257.4942086,,3.72447628,-54.94512072,520,0.000247
mp-27368,160,22.49822159,3.919172362,Na1Li5Sn4,0.092443036,225.63304,,3.94414895,-29.37239906,520,7.30E-06
mp-27388,63,2.324559114,5.179847159,Ba2Si4Ni4,0,199.3249343,,5.36688867,-54.20726633,520,0.00036125
mp-27396,166,5.871790408,3.221310632,Ni1Cl2,0,66.80661627,,1.92340267,-11.20566555,520,2.0002811
mp-27399,19,226.1422814,3.092712145,Sb4Br12,7.54E-05,776.3262014,,-1.80348213,-45.85877624,520,0
mp-27409,194,17.25983863,4.231861543,Rb2Ni2Br6,0,301.2558084,,1.1711076,-32.53784085,520,1.99979385
mp-27413,6,2.890580556,8.119926797,Mo8P5,0.025923462,188.6301031,,9.57554452,-120.2386207,520,0.0017295
mp-27418,47,5.388398892,6.507823854,K1Au1O2,0.028154355,68.39923722,,1.21775327,-17.3672043,520,2.36E-05
mp-27419,148,5.804493996,4.796672276,Li1Bi1F6,0,114.2107328,,-2.80539528,-34.37254066,520,2.00E-07
mp-27420,148,5.906882753,4.200822292,Na1Bi1F6,0,136.7544313,,-3.55985905,-33.75008356,520,9.00E-06
mp-27421,148,16.52536362,4.462876314,Rb1Bi1F6,0,151.9711112,,-3.34670801,-33.80216474,520,1.60E-06
mp-27422,148,17.99548918,4.500704922,Cs1Bi1F6,0,168.1959512,,-3.36258849,-33.84730428,520,0.0007316
mp-27438,166,18.80236042,7.591850097,Tl1Bi1Te2,0.091922036,146.2326192,,4.53152947,-13.78652083,520,0
mp-27449,58,50.46755556,3.904090346,Ga4Te4Cl4,0,396.0293962,,0.94109693,-40.69903899,520,3.25E-05
mp-27453,146,8.032731579,3.283949467,Li7Sb1O6,0.022666785,134.6773506,,1.37512509,-73.09310777,520,0
mp-27454,59,-0.911022452,2.991348495,Ba2Li4Si2,0,199.0577275,,2.38492215,-24.51902608,520,1.36E-05
mp-27456,62,23.52594847,4.585944026,Ba4Br8,0,430.3622241,,-0.04054058,-47.46766384,520,0.00035655
mp-27462,16,86.56861296,1.651639604,Al2P2S8,0.005447829,374.437348,,0.40560643,-58.36814819,520,1.55E-06
mp-27480,12,10.62081925,4.85663151,Sn4O2F4,0,199.2772096,,2.87532816,-52.41111007,520,1.50E-07
mp-27505,166,-1.211117098,8.281698258,Fe6Sn4,0.001686526,162.3926799,,7.94533937,-66.78187901,520,6.145895
mp-27508,225,9.029030187,2.65152686,Li6Br3N1,0.064371817,184.9744096,,1.00679358,-35.00647589,520,5.26E-05
mp-27517,11,33.91462394,3.808470509,Rb4Co2I8,0,643.1061563,,1.03474739,-42.82997944,520,2.99853515
mp-27527,51,17.41203476,7.41666462,Te4Au2I2,0.004963414,259.2998649,,4.81408765,-22.95485917,520,2.00E-07
mp-27529,173,80.26866236,3.359716944,P2I6,0,406.9525098,,0.02955637,-20.40131536,520,0
mp-27544,164,45.6058322,4.332277986,Cs3Bi2Br9,0,588.6689893,,-0.34561002,-42.87859217,520,0
mp-27549,63,17.60161269,4.407316972,K4Ag2Bi2,0,297.6813246,,1.20990066,-20.54962514,520,8.41E-05
mp-27561,11,26.1088994,1.969784227,Rb18O4,0,1350.847271,,,-49.15156915,520,0.0002236
mp-27563,162,11.39846318,5.793239227,Rb2In4O7,0,212.7406919,,2.97081627,-67.44209298,520,0.0016903
mp-27577,15,21.48911678,5.668718038,Cd4As6I2,0.002151798,337.7434734,,2.60464212,-37.20942685,520,0.00030615
mp-27587,166,2.058302206,5.31816073,Li8Pb3,0,211.4260054,,3.17976685,-29.97576741,520,1.38E-05
mp-27606,62,7.364756032,6.847379479,Zr4As8,0,233.842157,,6.23130438,-81.53977502,520,6.20E-06
mp-27608,216,3.314693925,4.084389288,Be4Te1O7,0,112.0653463,,3.20616513,-78.78069007,520,0
mp-27622,60,44.82134509,5.186870068,Na16Pb8O16,0,730.3823051,,1.97440887,-182.3352199,520,0.000846338
mp-27635,225,24.13349257,4.191722486,Rb2Sn1I6,0.01302646,416.3793747,,1.18667958,-22.88013675,520,1.43E-05
mp-27636,225,43.82096275,4.333490561,Cs2Sn1I6,0,439.1127444,,1.13616351,-23.16211711,520,3.86E-05
mp-27637,166,-0.41598127,4.972530499,Ni1Br2,0,72.96689383,,3.0106358,-10.12461974,520,0.0005307
mp-27638,166,6.41614733,5.584908646,Ni1I2,0,92.91509827,,4.33253336,-9.11812902,520,0.0001795
mp-27639,63,48.0244646,3.414813858,I2Br2,0,201.1316297,,-0.5307796,-6.64234845,520,3.83E-05
mp-27641,62,72.41964621,3.551646864,Cs4Br12,0,696.8551205,,-1.11109016,-38.86694538,520,0
mp-27658,160,-11.19841987,1.191601113,Li5B4,0.664984698,108.6247371,,,-31.69117229,520,0.0001386
mp-27677,123,-60.32612803,4.58057195,K1Cu4S3,0,141.1924687,,4.61003264,-33.16372698,520,0.0006832
mp-27679,166,10.70196533,4.621207892,La2Br2,0.10128517,157.2496523,,4.5616384,-18.21325986,520,0.9061702
mp-27683,164,-11.9293716,3.928457563,Li1Sn1S2,0.099710916,80.21946388,,5.25970964,-16.87411529,520,0.0001368
mp-27684,11,33.17810837,9.508465767,Tl8O6,0,302.3092716,,3.96738804,-57.58242667,520,0.0002113
mp-27689,129,2.292566468,2.3540324,P2H8Br2,0,162.1148013,,-0.06782192,-43.19386113,520,0.0002119
mp-27691,225,22.69461285,4.232345769,K2Pt1Br6,0,295.3197688,,-0.32545368,-27.03763327,520,8.06E-05
mp-27702,59,13.16384348,4.284666085,In2Cl2O2,0,128.8774831,,1.44165348,-27.38904367,520,9.36E-05