material_id,spacegroup.number,delta_volume,density,full_formula,e_above_hull,structure.lattice.volume,band_gap.optimize_structure_gap,efermi,final_energy,encut,total_magnetization
mp-20074,194,8.218274144,5.762915048,Sr2In4,0,182.8296858,,5.43592368,-17.09157496,520,5.65E-05
mp-20083,62,0.071486819,4.808727606,Sc4Si4Cu4,0.007999686,188.664236,,6.75146975,-71.34894463,520,4.65E-05
mp-20085,194,2.98850882,6.508003461,La2Ti2Ge6,0,206.5172982,,6.20989481,-60.56244577,520,0.0001916
mp-20086,140,-0.790426148,8.165671633,Mn2Sn4,0.011270887,118.9055767,,8.77470059,-34.28846298,520,8.26E-05
mp-20097,221,24.01627616,16.2507554,Pt3Pb1C1,0.480078674,82.20182303,,7.27416855,-29.19103475,520,3.27E-05
mp-20107,62,-9.556718583,7.310097393,Mn4Cu4As4,0.190708278,175.7337047,,6.75696317,-71.52848354,520,3.575375875
mp-20112,194,-0.516074321,9.471030678,Ni6Sn2,0,103.3700877,,9.59043387,-44.18627922,520,8.70E-05
mp-20118,227,14.63763851,6.275920635,Cr4Ag2Te8,0,382.2041932,,4.84845135,-72.15653789,520,0.7931722
mp-20119,224,28.5134956,8.366224875,Pt2O4,0.787517443,90.1433706,,2.01306878,-29.9628068,520,0.00214205
mp-20120,221,-2.613863747,7.936443233,Fe1Se1,0.512210605,28.20519957,,7.50558201,-11.47608385,520,1.8747936
mp-20131,221,4.08391724,7.135478313,Y1In3,0,100.8497143,,7.16240933,-16.34540942,520,3.60E-06
mp-20132,166,6.530026328,9.485037043,In1Hg1,0.011534188,55.2182659,,,-3.03248041,520,0
mp-20133,129,1.936305214,7.707256923,Nb4Cr4N4,0.007398384,136.9488003,,7.43936311,-120.7464899,520,5.88E-06
mp-20134,8,7.427643271,1.746330507,K1C1N1,0.171590411,61.91678009,,-1.77945101,-19.33611012,520,0
mp-20138,189,18.26702389,7.703327343,La3In3Pd3,0.227030087,232.8989534,,7.34443284,-43.3937809,520,3.37E-05
mp-20139,221,-6.267347071,8.098708987,Mn3Ge1,0.086526768,48.68700209,,6.11586371,-32.20198042,520,5.3179319
mp-20144,62,0.174354311,7.08015821,Nb4Cr4P4,0,164.9959548,,8.16345233,-109.2123984,520,1.445076325
mp-20145,225,-0.337226845,7.864806333,Ti1Ga1Co2,0,49.71317935,,6.19633354,-27.21445368,520,1.0144916
mp-20146,127,4.22607672,7.956537194,Zr4Ni4Sn2,0.023885074,174.7016229,,7.15640207,-71.00804205,520,1.95E-06
mp-20147,62,0.848113491,6.646876626,Zr4Mn4P4,0,177.010009,,7.26657515,-104.910728,520,0.0017868
mp-20152,176,-31.58253107,6.396532191,In2Mo6Se6,0.008149911,332.0376023,,5.41771863,-97.57239243,520,2.30E-06
mp-20158,225,1.187773439,10.06759868,Pb1O2,0.106412377,39.45319618,,5.61992023,-15.81272722,520,1.02E-05
mp-20160,216,0.793818354,7.743304604,Mn2Ga1Co1,0.138835235,51.15285938,,5.15299072,-28.48832883,520,0.0104062
mp-20162,166,2.83386035,5.82204029,In1Ag1S2,0.08939819,81.80456913,,4.97817019,-15.20120057,520,7.40E-06
mp-20175,194,25.6179039,4.804791357,Sc4In2C2,0.017211964,149.8113341,,5.37426862,-53.61230087,520,0.00018365
mp-20180,221,-3.600595238,7.589016482,Mn3Ge1C1,0.043417693,54.58495164,,6.72313788,-41.58665358,520,2.9793499
mp-20185,216,1.176071789,9.626705332,Lu1Ni1Sb1,0,61.30752209,,6.7163661,-17.10440541,520,8.14E-05
mp-20189,129,-150.0771135,4.867634643,Sr2Mn2Ge2,0.14601059,146.8248056,,3.40425477,-32.54381809,520,3.78421805
mp-20190,194,7.947884779,6.73326853,La4Zn4Sn4,0,318.6534094,,6.78098648,-48.90072023,520,3.70E-06
mp-20192,62,3.925662559,9.599636839,Hf4Mn4Si4,0,180.945783,,6.85489464,-106.42566,520,4.94E-05
mp-20195,129,0.636633836,6.509648347,La2Mn2Ge2,0.128192597,135.9539737,,6.46216931,-40.06910134,520,3.4315022
mp-20196,124,11.14772437,6.575432,Nb2Te8,0.013480265,304.7142141,,6.12107125,-48.51499538,520,0.0002838
mp-20197,194,-2.499873343,6.887639667,Cr4Ga2C2,0,89.5532062,,6.70126846,-64.1586209,520,0.0009729
mp-20202,140,12.17710028,7.475068967,Mg2Sn8Ru2,0,266.6678914,,8.49165165,-56.28418956,520,0.00015295
mp-20203,62,-16.12694583,6.589160827,Mn4Cu4P4,0.254846916,150.6598669,,8.4591802,-76.53497821,520,2.934006175
mp-20207,189,3.017630239,9.029737259,Mn3As3Rh3,0.125377504,128.4142382,,7.14370424,-65.54188593,520,3.273618667
mp-20210,15,13.18794315,8.115200652,Ag4Pb2O4,0.003646223,186.1784305,,2.75994572,-43.99751322,520,5.05E-06
mp-20211,225,-1.585993606,7.078772375,Mn3Si1,0,45.25041317,,7.96782465,-34.19010423,520,1.0061743
mp-20215,129,-17.32982457,3.224934893,La2S2,0.278581502,176.0675174,,4.02704683,-25.68255173,520,4.99E-05
mp-20220,62,7.013359552,6.364477121,Ca4In4Rh4,0,269.049254,,5.54284766,-54.97727939,520,2.15E-05
mp-20227,129,-18.06611703,3.657644427,Na2Mn2P2,0.021511757,98.88075373,,4.99800023,-34.38084525,520,1.412581
mp-20228,225,-1.384996022,8.30363942,Mn1Ga1Ni2,0.005142542,48.40406427,,6.71017646,-24.89533219,520,4.0539723
mp-20233,129,0.828910697,4.706660626,Ca2Mn2Sn2,0.182094558,150.8077466,,4.93647469,-31.84316498,520,3.9002432
mp-20235,129,0.035389755,4.564507018,Ca2Mn2Ge2,0.095841768,121.9844364,,4.43793961,-33.64469347,520,2.3230641
mp-20237,194,6.586794696,9.439955958,Co2Ni2Sn2,0.160001528,83.1457571,,9.16600121,-33.83734534,520,0.9731143
mp-20242,129,-1.505446347,4.22653204,Rb2Mn2As2,0.069690198,169.1976426,,2.87864716,-30.8672617,520,4.4021842
mp-20253,63,46.6842093,6.771521052,In6Sb6,0.120968122,348.0875289,,6.79772819,-41.18938785,520,8.88E-06
mp-20257,36,12.72110334,10.78614615,As2Pd6Pb4,0,248.96405,,6.26923972,-59.24955293,520,2.40E-05
mp-20263,221,0.673091843,4.457749882,Ca1In1,0,57.69970545,,4.97652123,-5.68489321,520,0.0008322
mp-20265,225,5.226784446,9.87422443,Li1In2Pt1,0,72.59202458,,7.6395562,-15.44171891,520,5.05E-05
mp-20268,62,4.075647177,7.962523404,Ti4Ge4Pd4,0,189.2973489,,5.82060857,-79.32275832,520,4.74E-05
mp-20269,216,-3.025957986,10.62309035,Mn1Ga1Pt1,0.272875908,49.98066593,,4.21144471,-18.79985444,520,0.0005612
mp-20271,129,9.281681273,7.540390139,La2Ag2Sb4,0,215.9442058,,7.02152744,-38.01260142,520,1.27E-05
mp-20273,221,2.592510795,4.896614896,Ca3Pb1O1,0,116.4650642,,5.15760853,-22.47808364,520,0.0002387
mp-20278,127,9.385285556,7.755697896,Fe2B4Mo4,0.985654806,115.3374499,,7.21774978,-81.50897275,520,0.0001942
mp-20279,187,2.07373088,6.219208365,Nb1In1Se2,0,97.62766129,,4.56270782,-22.57906254,520,1.80E-06
mp-20282,161,13.79328484,5.680898487,Cs2Pb2F6,0,232.146782,,1.26492865,-45.76644903,520,4.30E-05
mp-20284,205,3.515366777,6.194649668,Pd4F8,0.038532839,154.8495931,,1.61330616,-48.60871178,520,0.000940275
mp-20289,166,21.77015244,3.881389951,Na1In1S2,0,86.39316167,,3.53173594,-15.79339747,520,0
mp-20291,221,6.590055943,9.991465199,Y1Pb3,0.008242118,118.0830517,,6.83570556,-18.72401189,520,0.0022706
mp-20301,127,8.100350741,9.025382679,La4Pd4Pb2,0,256.7888302,,7.60937308,-56.32870736,520,2.23E-05
mp-20304,58,3.592925991,7.630937593,Rh2N4,0.108441093,56.97751865,,6.76722873,-45.87325141,520,1.25E-06
mp-20305,216,3.413344768,5.335684242,In1As1,0,59.04959869,,3.79862412,-7.87502428,520,1.50E-06
mp-20311,129,-9.53770083,5.6198287,Fe2Se2,0,79.66398168,,3.52951208,-25.00101012,520,2.72E-05
mp-20315,194,16.48292662,6.063190028,Ti4In2C2,0,121.9074614,,7.38665946,-60.87593773,520,0.00011525
mp-20320,140,14.86409643,5.986867474,In4Te4,0.013293302,268.9517045,,5.50682181,-25.79626218,520,1.44E-05
mp-20325,221,6.53437203,5.857245386,Ti3In1C1,0,76.66728041,,7.54261358,-38.38289649,520,0.0001887
mp-20327,62,38.92927034,4.262086568,Ti4P8,0,171.1380577,,9.41390793,-84.69621811,520,1.75E-06
mp-20329,194,18.0074072,6.843861438,In2Ag2O4,8.74E-05,123.5894061,,3.4014467,-39.3745976,520,8.50E-07
mp-20335,62,-1.449345879,7.462931783,Mn4Nb4P4,0,159.1517056,,8.12822654,-108.4385059,520,6.24E-05
mp-20337,38,4.564591056,7.533522268,Zr1Pb1O3,0.033221045,76.35838416,,3.61170226,-39.25873046,520,9.43E-05
mp-20344,221,2.37793603,8.303500873,Fe3Ge1,0.0097528,48.03033925,,6.22824953,-30.36640754,520,6.4042192
mp-20351,216,2.015615507,4.581623554,In1P1,0,52.8399834,,4.68964738,-8.58127877,520,8.62E-05
mp-20354,129,-2.150385643,5.056272788,Mg2Mn2Ge2,0,99.76033189,,4.6646667,-31.95855961,520,2.0628795
mp-20363,225,4.068404426,9.652126003,Li1Ga2Pt1,0,58.74622092,,4.99312119,-16.50249792,520,8.31E-05
mp-20378,62,12.41974312,7.866868224,Ca4In4Au4,0,297.0846929,,5.25071573,-40.11222202,520,6.55E-06
mp-20389,216,4.721954854,5.74786927,Na2Cd1Pb1,0,105.6178096,,3.4387433,-7.885553,520,5.60E-06
mp-20393,15,9.875236432,8.739244966,Sr4In2Pt4,0,258.4987224,,4.73548738,-44.6725289,520,3.25E-06
mp-20395,62,-30.47457281,8.650396162,V4As4Rh4,0.003671,175.6586331,,7.52568096,-89.9401109,520,0.982172475
mp-20397,66,65.30815613,5.276566312,Sr2In4Te8,0,520.9278225,,3.68320189,-49.71328802,520,2.97E-05
mp-20401,129,-3.112484549,8.111217486,Hf2Si4Cu2,0,122.0986532,,7.50260263,-53.58880676,520,7.98E-05
mp-20411,216,1.768498388,6.628098356,In1N1,0.009602005,32.27448239,,6.05269346,-10.86467155,520,0
mp-20418,62,5.940757668,9.539639451,Si4Rh8,0,162.8549052,,8.30828106,-89.21495175,520,0.00022295
mp-20424,221,-1.824687852,6.563381654,Mg1Co3C1,0,53.91828015,,5.61508806,-32.48036509,520,1.055016
mp-20426,129,-0.824351268,7.948233809,Fe4As2,0.061739628,77.97351073,,6.58459375,-43.58732162,520,0.00190505
mp-20432,194,4.739433935,8.262506979,Fe4Ge2,0.075253542,74.09062697,,6.13353236,-43.28117991,520,3.94426405
mp-20436,62,3.69838912,11.65452092,Ta4Si4Rh4,0,177.7805169,,8.03727846,-108.5455591,520,3.43E-06
mp-20440,225,-0.288400354,8.73158923,Mn1Ni2Sn1,0.009504799,55.34785357,,8.8477371,-25.41337467,520,4.0769073
mp-20446,221,20.53350558,14.97405457,Sn1Pt3C1,0.643031466,79.39737458,,7.91265678,-29.73140443,520,1.13E-05
mp-20451,189,7.913347472,10.18845037,La3In3Pt3,0,219.4432809,,8.30473154,-50.06026756,520,5.66E-05
mp-20452,129,0.008176968,6.334922141,Ba2Mg4Pb4,0,314.7262124,,4.36149335,-28.92323069,520,5.00E-07
mp-20457,225,11.77037857,5.70244803,In1P1,0.23724558,42.4542076,,7.06692469,-8.10678761,520,6.00E-06
mp-20459,99,1.810229038,7.29511185,Ti1Pb1O3,0,68.9847677,,4.69173452,-38.03842838,520,0
mp-20461,12,10.76255441,7.877180099,Ba2Pb2O6,0,165.4915619,,3.04066113,-57.90246833,520,2.31E-05
mp-20463,225,13.75779102,3.614026917,Ca1Pb1F6,0,165.9922097,,-3.81795013,-38.65593178,520,0.000107
mp-20465,205,11.41417458,7.549096963,As8Pd4,0,225.4760007,,5.25676447,-61.81579829,520,1.13E-06
mp-20466,107,10.69982461,12.0735166,Sn7Ir5,0.001658645,246.4714622,,8.9526489,-75.43720189,520,0.0041193
mp-20469,221,4.684130215,8.344892741,Yb1In3,0,102.9754386,,6.30654262,-11.1816748,520,0.0007875
mp-20473,194,-7.271832609,7.837276704,Mn4Ge2,0.079141897,77.34194014,,6.15682355,-46.10362926,520,4.6773586
mp-20478,129,0.975436435,7.091533828,Lu2Ti2Si2,0,117.5095926,,5.20164861,-39.71961568,520,0.0270502
mp-20481,225,1.535019325,9.647958815,Mn1Sn1Pd2,0,66.51961306,,7.17464602,-25.17560968,520,4.1985612
mp-20483,225,-0.783620037,10.68283962,Pb1,0,32.20713792,,6.67649277,-3.71506024,520,5.38E-05
mp-20485,194,12.96947056,5.078137367,In4Se4,0.001370631,253.4598108,,3.2605385,-29.05757427,520,1.80E-06
mp-20491,225,1.844531512,7.759240888,La1In1Cu2,0.028609317,81.49752845,,7.7319351,-16.98078532,520,1.48E-05
mp-20492,62,4.020997298,6.022270852,Sc4Si4Rh4,0,194.0575066,,6.84797162,-89.83387772,520,0.000122675
mp-20493,227,18.25468916,3.924914447,Mg2In4S8,0.005873794,323.4005175,,3.74167942,-58.5273193,520,0.00016195
mp-20494,123,11.36328415,6.884689465,La1As1,0.367331815,51.57359665,,8.049252,-11.99362997,520,3.50E-05
mp-20495,194,-2.968781359,2.283346614,Na4C2O6,0.019313503,154.1578829,,0.93616604,-73.99403068,520,0.00020035
mp-20496,40,9.826139288,6.178151129,Ga4Pb2O8,0,220.7423273,,1.61234191,-82.58233937,520,9.10E-06
mp-20509,65,19.96982366,5.699345308,Ba2Y1Cu4O8,0.349358127,217.2756236,,2.97101822,-86.23118155,520,0.0924504
mp-20512,194,-6.795827089,7.841701582,Fe2Sn2,0.181946104,73.92665714,,7.08193385,-24.21175685,520,0.00230125
mp-20516,221,6.866756912,17.44476869,In1Pt3,0,66.63851991,,8.09680521,-22.36769509,520,0.001484
mp-20519,164,11.58269309,5.478445455,Cd1In1S2,0.190042467,88.31209477,,5.27695643,-13.43490402,520,0.0007385
mp-20521,225,2.933036625,12.68857833,Sc1In1Pt2,0,71.97023899,,7.59287054,-24.859715,520,4.63E-05
mp-20523,216,-16.72742538,9.312003272,Hf1Ni1Sn1,0.803797887,63.46377546,,6.41996961,-19.22677232,520,8.20E-06
mp-20526,39,4.428839397,3.860577326,Pb2S2,0.059852073,205.8287348,,0.37172806,-17.59087101,520,6.00E-06
mp-20536,191,0.610890089,8.557224119,Co3Sn3,0,103.4155901,,8.15600911,-33.96078274,520,0.000153233
mp-20539,221,3.579923957,6.929558212,Sc1In3,0,93.31480329,,7.80032054,-15.72947503,520,0.0001161
mp-20545,215,2.406619726,4.3712088,Cu3As1S4,0.003833568,149.6045717,,4.6813606,-35.03049317,520,0.0015765
mp-20549,221,4.789737299,8.989667513,Ca1Pb3,0,122.2227796,,6.27968947,-14.46894028,520,2.80E-06
mp-20551,123,0.464822755,8.823817487,Ga1Co2Ni1,0.084735532,46.34753476,,6.03473829,-23.52371185,520,2.9965446
mp-20552,129,-2.958411191,7.408616686,Cr4As2,0.076614191,80.20211121,,7.58859776,-48.17550932,520,0.00732265
mp-20555,221,4.536257077,8.843333678,Na1Pb3,0,121.0365362,,5.51383692,-12.87440879,520,0.001718
mp-20557,62,0.539716486,5.659045625,Y4Si4Ni4,0,206.2053607,,6.25545423,-80.47664754,520,3.11E-05
mp-20565,194,-2.240454104,8.307568251,Mn2Co2Ge2,0.014596049,74.56073452,,5.8677799,-42.91719428,520,0.0018618
mp-20566,221,3.856353765,6.020965864,Mg1In3,0.015500736,101.7010775,,6.66626992,-9.95109548,520,3.16E-05
mp-20567,225,-0.410798937,7.377898206,Li1Ga2Ru1,0,55.69499575,,4.86508321,-18.63784977,520,0.0010201
mp-20568,186,4.284150067,7.245452477,La2Ag2Ge2,0,146.4087635,,5.93382397,-28.66934051,520,1.09E-05
mp-20581,225,10.10219153,2.968180056,Ca3In1,0.082856231,131.4991055,,3.68492721,-9.63052823,520,0.0003765
mp-20582,221,-1.100553577,6.775542087,La1In1,0,62.18214305,,7.81371498,-8.69844641,520,0.0004848
mp-20586,225,0.912315059,7.144266763,V1Co2Si1,0.041430032,45.76385116,,8.27995552,-30.414767,520,2.8186959
mp-20588,129,2.822507042,5.772806652,Zr2Si2Cu2P2,0,123.015323,,7.90766304,-52.70032555,520,5.40E-06
mp-20590,221,19.06863965,5.951143118,La3In1B1,0.20600272,151.329872,,6.75871898,-25.08035603,520,0.0010831
mp-20605,15,14.7167608,3.899809746,Pb2C4S4N4,0.141907747,275.377472,,1.62804595,-92.67407073,520,0
mp-20610,62,4.041981874,10.7021562,Lu4Ge4Rh4,0,217.5410934,,4.87808673,-77.95795795,520,1.20E-06
mp-20612,129,-9.171147785,4.24453018,Na2Mn2As2,0.026974324,119.5950595,,3.6679825,-31.94171023,520,3.48540495
mp-20619,62,6.038365742,9.793323221,Sb4Rh4,0,152.3755829,,8.90641949,-49.93277677,520,4.11E-05
mp-20620,225,7.389961831,6.434742704,Ba2Nb1In1O6,0,149.2544374,,2.96292267,-71.85812072,520,0
mp-20621,187,3.153198541,5.506038236,Nb1In1S2,0.02236908,81.98722781,,6.35918853,-24.52007205,520,2.40E-06
mp-20624,189,2.568278547,6.824176918,La2Zn6Ge3,0,216.1236125,,5.21292424,-36.33960682,520,3.34E-05
mp-20628,227,6.564317772,4.413462257,Na2In2,0,103.6987143,,4.7250845,-8.68798477,520,0.00103225
mp-20633,60,10.67156367,9.19477498,Pb4O8,0.007955829,172.7933295,,3.95478908,-64.43238745,520,0.00106845
mp-20639,129,-134.339837,5.388651229,Ba2Mn2Ge2,0.166545292,163.2635516,,2.71628085,-32.77839235,520,4.4052786
mp-20661,194,-5.065263101,8.250785848,Ti4Pb2C2,0,126.7704627,,8.09451464,-62.0505431,520,0.00015225
mp-20662,68,13.75380128,9.022159833,Sn8Pt2,0,246.6005871,,8.06831939,-46.98897047,520,3.24E-05
mp-20664,129,-8.579444651,7.757811775,Mn4Sb2,0.122720983,99.16218173,,7.65055309,-44.29098947,520,5.4722185
mp-20669,62,0.794004694,3.31074279,Ca8In4,0,391.1653176,,3.6050332,-31.46902821,520,2.90E-06
mp-20673,191,-50.5144294,7.506014728,Mg1Fe6Ge6,0,175.923656,,5.47995154,-81.9848622,520,0.0180539
mp-20674,47,5.085971371,6.198284346,Ba2Y1Cu3O7,0.036438377,178.4752848,,3.26074524,-80.74735293,520,0.0017425
mp-20683,113,2.268783607,6.508226456,Cu6Se4,0,177.8654049,,,-39.9044828,520,0
mp-20689,127,-0.677184668,7.75263223,Nb6B4,0.002894138,128.6603501,,5.98015433,-93.64481034,520,9.45E-06
mp-20694,199,21.46694346,5.613396281,K4Pb4O6,0,319.8344551,,2.50674012,-66.7931707,520,0.00014495
mp-20695,221,1.045023154,7.182073627,Zr3In1,0,89.82124733,,5.61794319,-29.38517926,520,0.0004023
mp-20697,62,6.777383157,8.30210486,Zr4Ni4Sb4,0,217.3573746,,,-81.46701835,520,0
mp-20708,166,-14.00597551,6.731042038,In2Ni3S2,0,115.9104272,,7.81906064,-33.94857937,520,3.04E-05
mp-20711,225,-0.046686123,8.399630149,Fe3Ge1,0,47.4806577,,,-30.40541874,520,5.692524
mp-20716,11,7.680022952,6.645458547,Pb2Se2O6,0,166.9960719,,3.04452236,-54.49744237,520,2.40E-06
mp-20717,62,3.034570507,6.607782243,Cr4As4,0,127.5779304,,6.19820112,-58.72357349,520,0.00034725
mp-20723,127,9.815480589,8.804891119,Ca4Pb2Au4,0,256.9724477,,4.55042068,-35.61669088,520,2.65E-05
mp-20724,225,2.887837869,5.133264903,Mg2Pb1,0,82.75093918,,4.50207157,-7.08503539,520,1.00E-07
mp-20725,136,-28.21674171,8.9188665,Pb2O4,0,89.06937798,,3.77159434,-32.2639287,520,0.0004099
mp-20726,62,3.041075871,3.855279478,Sr4Ca4Sn4,0,424.5296416,,3.42585634,-38.94513946,520,0.0005163
mp-20727,162,6.25269302,6.619820751,Sb2Pb1O6,0,137.140258,,4.18421175,-54.62687526,520,2.90E-06
mp-20729,221,1.235278816,7.283404473,La1In3,0,110.2008372,,7.91094168,-15.11697849,520,0.0007681
mp-20730,225,0.750636434,11.27775906,Hf1Co2Sn1,0,61.11444136,,7.81231733,-29.74176072,520,0.0009231
mp-20743,194,5.700362499,8.587029536,La2In2Pd4,0,180.4458348,,7.13299698,-42.49630706,520,1.06E-05
mp-20744,225,0.762131727,8.536057771,Zr1In1Ni2,0,62.91735172,,7.72796653,-24.47810794,520,0.0012258
mp-20745,194,15.16553586,10.80359451,Pb2,0.02747954,63.69429892,,6.75568846,-7.3751614,520,5.20E-05
mp-20756,129,1.937644684,6.135919798,La2Ti2Ge2,0,140.4074851,,6.58618426,-38.60567365,520,0.00547265
mp-20757,129,-0.936883947,5.706356844,Mn2Al2Ge2,0,89.95309252,,6.28025678,-36.27206896,520,0.0007274
mp-20759,129,-76.92281981,5.019582774,Sr2Mn2Sn2,0.217311033,172.8612947,,4.51311801,-31.11649359,520,4.1304569
mp-20760,194,3.094214137,6.604147482,La4In2,0.011614125,197.4443136,,7.86811323,-27.36986879,520,0.03686245
mp-20761,129,5.768840499,7.250487102,La2Co2Ge2,0,123.8924713,,6.95145356,-36.99755147,520,0.00013205
mp-20787,62,-2.014944391,6.945188063,Fe4B4,0.004841221,63.74767061,,7.67802794,-63.54182974,520,1.159176
mp-20790,82,11.19830623,2.947429051,In1P1S4,0,154.3968123,,2.3722751,-26.85018651,520,0
mp-20792,15,5.994747631,5.74423779,Ca4In2Pd4,0,235.781001,,4.51335371,-41.49417617,520,5.50E-07
mp-20796,221,13.80611601,15.31023691,In1Pt3C1,0.536013896,77.23184228,,8.21238624,-28.91309919,520,0.0001768
mp-20801,225,4.835418074,7.783501557,Li1In2Pd1,0,73.17528042,,7.01685018,-14.38408514,520,3.24E-05
mp-20809,216,8.289576033,5.514528647,Cr4In1Cu1Se8,0,306.5494823,,3.83830301,-80.45651334,520,11.9963141
mp-20812,225,1.299283691,8.192186897,In1N1,0.21002658,26.11249552,,8.82433822,-10.4638224,520,3.00E-07
mp-20815,129,0.241917245,6.309454347,Sn2Pb2F8,0.03174888,211.5481316,,2.65405882,-58.16838473,520,7.50E-07
mp-20817,29,5.099614888,10.11117088,Ge4Pt4Se4,0,227.7411086,,4.89589739,-63.34958657,520,0.000165625
mp-20824,123,3.117184254,6.222852544,Sr2Ca1Tl1Cu2O7,0.0175826,175.7947841,,3.39120576,-72.30360056,520,0.0002209
mp-20826,59,2.706719024,6.896082855,Cu2Te2,0,92.05382302,,6.02044982,-14.73399835,520,0.00013035
mp-20828,221,4.368397134,18.65124704,Pt3Pb1,0.03038421,70.55278826,,8.27239873,-22.2444177,520,3.50E-06
mp-20830,166,-2.592319266,6.070790859,In2Se3,0.522058342,127.6057846,,5.08576062,-15.97092126,520,0.134147
mp-20838,51,11.60471889,8.006793715,Ca2In8Ir2,0,286.8499035,,7.14650227,-47.71237998,520,3.30E-06
mp-20839,221,-28.01889634,5.768780047,Ni4N1,2.044084288,71.61122407,,3.41404033,-21.10309842,520,5.0392308
mp-20840,225,0.159744251,9.005009625,Mn1Co2Sn1,0,53.75575598,,7.8877951,-27.80560464,520,5.0306989
mp-20841,225,5.470006009,6.598058208,Ba2Ca1Ir1O6,0,151.7437925,,3.12405602,-65.60662907,520,2.8178653
mp-20843,15,8.735283419,6.323541241,Sr4In2Pd4,0,264.1183888,,4.09104649,-39.64029043,520,4.01E-05
mp-20849,221,4.907452789,12.49762849,Pd3Pb1,0,69.94986159,,6.22699666,-20.44995417,520,5.08E-05
mp-20860,221,-1.619226226,8.314754927,Mn3Sn1C1,0.055341557,59.02123821,,8.73129058,-40.77997621,520,3.2479068
mp-20861,198,-2.228305891,7.639573809,Cr4Ge4,0.091153019,108.3636941,,6.17615953,-56.96545489,520,0.923927325