material_id,spacegroup.number,delta_volume,density,full_formula,e_above_hull,structure.lattice.volume,band_gap.optimize_structure_gap,efermi,final_energy,encut,total_magnetization
mp-29506,15,16.48866579,5.956369732,Cs2Bi2O4,0,208.4659243,,1.86595493,-40.02057985,520,2.70E-06
mp-29509,14,35.93654688,4.241719557,Zn4As8O16,0.006019791,437.2803893,,0.9731954,-157.8314212,520,0.00020495
mp-29510,28,33.6938482,7.096506848,Hg4Te2O6,0.008646473,269.9251164,,0.78130498,-44.76816917,520,0.00065595
mp-29515,36,11.73155303,1.92716999,P2H4F6,0,155.0702428,,-2.70976701,-54.53854999,520,0
mp-29520,14,37.84693883,5.433153206,Li2Au2I8,0,434.9282051,,1.88370803,-27.84357914,520,0.00222165
mp-29521,15,13.61447877,5.959297555,Rb2Bi2O4,0,181.926807,,1.7145492,-40.3198324,520,1.85E-06
mp-29529,186,4.925232953,3.651843001,Na2Sn2P2,0,157.0336621,,4.18324219,-23.29728513,520,3.36E-05
mp-29537,141,31.24409617,1.877008322,Cl8O4,0,307.5315284,,-0.79439359,-31.60392472,520,2.57E-05
mp-29551,225,3.306479444,3.844147054,Na3Hg1,0.014115959,116.4403307,,1.36705806,-4.82365663,520,0.0022748
mp-29556,225,13.74804586,5.236190292,Tl2W1Cl6,0,255.3904392,,2.68808533,-37.14075918,520,1.9999385
mp-29567,14,58.69823425,4.381024641,Cu4Se8Br4,0,456.9128836,,1.41693133,-54.25396548,520,0.000413875
mp-29584,166,5.974729414,2.125226768,K4Be1As2,0,246.3184567,,0.45538562,-20.35754239,520,4.07E-05
mp-29585,166,9.005779199,2.501044803,K4Cd1As2,0,277.955977,,0.21374636,-17.64553762,520,4.18E-05
mp-29615,164,1.424222824,6.582747871,Ca1Mn2Bi2,0.365329092,143.2600587,,3.75506366,-27.88846401,520,0.3221162
mp-29617,166,8.917943181,7.310532962,V6Sb4,0.026121833,180.054045,,7.96019834,-72.46724367,520,0.00076315
mp-29624,164,10.72286415,3.765717022,Mg2Al2Se5,0.005670061,219.3227498,,,-37.3278169,520,0
mp-29633,225,2.150047403,8.602253302,Li1Ge1Pd2,0,56.44759223,,4.72999598,-19.3257015,520,0.0001198
mp-29638,198,23.21923386,11.41331327,Bi4Te4Pt4,0.024350919,309.4104129,,7.08006065,-56.45812591,520,6.23E-06
mp-29641,164,30.53122119,6.130301013,Ge1Sb4Te7,0.850438664,393.5473895,,5.7819255,-44.55429592,520,0.0016909
mp-29644,164,19.118923,7.191417732,Ge1Bi4Te7,0.197321629,416.0369469,,4.84149408,-44.65815378,520,6.10E-05
mp-29646,62,6.397057966,9.533366642,Hf4As8,0,228.7586819,,6.58126855,-86.14317786,520,3.50E-07
mp-29656,166,12.73015882,7.915844605,Ag1Bi1Te2,0.163162411,120.0009703,,5.24835588,-13.61577875,520,2.00E-07
mp-29659,164,5.044703768,7.204340398,Fe3Ag3Te6,0.302438604,289.6677633,,5.35726745,-50.66965299,520,2.192972633
mp-29662,166,30.37533875,7.705509453,Tl1Bi1Se2,0,123.1117673,,3.89247151,-15.03933172,520,0
mp-29663,194,13.93876546,7.490109712,Si6Ir2,0.503644175,122.5870002,,9.62324804,-49.55655439,520,1.15E-06
mp-29665,229,-6.043692384,8.780173235,Sb3Au1,0.102561469,106.3341637,,6.82396002,-15.45412266,520,3.80E-06
mp-29666,166,18.07870272,7.096961696,Bi2Te2Se1,0.138047381,175.9803709,,3.99432959,-19.06497895,520,0.0117129
mp-29719,187,-4.38983136,3.399133658,Li1Ni1N1,0.195105131,38.90613581,,1.74042151,-16.20367713,520,5.67E-05
mp-29723,191,0.966515311,9.305679844,La1B2Ru3,0.003997982,82.750985,,8.48753013,-48.61641465,520,3.26E-05
mp-29725,221,-0.141502502,9.061385246,Y1B1Rh3,0,74.84722308,,5.56637645,-39.10998621,520,4.00E-06
mp-29726,191,1.704066083,8.228015797,La1Si2Rh3,0.028798365,101.6731027,,8.58372939,-44.01451835,520,0.000413
mp-29727,123,2.891132046,15.62465414,Ta4O1,0.220515412,78.62264938,,6.42098893,-55.24976549,520,8.10E-06
mp-29733,216,3.292441789,7.832722038,Mg1Ni1Bi1,0,61.89957896,,5.84802111,-11.86637646,520,7.20E-05
mp-29738,160,8.391624077,5.07211552,Tl1Cl1O3,0.023736135,94.23295318,,,-20.56721698,520,0
mp-29740,108,-0.457222578,7.063617117,Tl2Zn4Sb4,0.016601351,272.0955273,,4.17680426,-26.38610453,520,5.15E-05
mp-29748,131,28.71418565,6.395161612,Te4Pd4I4,0,374.8641297,,4.55994483,-43.26673441,520,1.75E-07
mp-29750,194,24.62137776,3.758600167,Cs2Mg2Br6,0,350.7184579,,-0.24219013,-31.42535277,520,0.00014485
mp-29751,194,25.11745403,4.128007397,Cs2Mg2I6,0,432.7722735,,,-26.83608475,520,3.20E-05
mp-29754,131,1.131412104,3.271153885,Sr2Li2N2,0,110.2246551,,1.65795794,-26.83820635,520,4.00E-07
mp-29763,194,16.12241576,3.806586441,Rb2Mn2Br6,0.00126717,331.6359847,,0.69941152,-42.21903765,520,4.99978735
mp-29770,12,-32.177691,4.261653525,Na3Mn4Te6,0.021201241,410.8128409,,2.74661272,-64.32179976,520,19.0031299
mp-29771,136,0.126974971,2.061823301,Mg2C4,0.433696129,77.84165969,,1.61296358,-37.50838747,520,0
mp-29798,160,10.16221233,5.629236405,Tl1Br1O3,0.009378732,98.01916379,,,-19.97141778,520,0
mp-29803,164,7.059896856,1.277057315,Si2H2,0.025029495,75.65955318,,0.80181021,-17.49653262,520,5.00E-08
mp-29806,139,24.40579618,4.73526407,Cs2Pd1I6,0.010995356,397.545497,,1.5318641,-23.16806461,520,0.0002255
mp-29824,11,-225.6437053,5.63397129,La6Ru2I6,0,529.6420417,,6.09820955,-73.36534833,520,0.0006858
mp-29829,70,10.35617492,6.680715889,Li4Au4S4,0,234.6105835,,2.19179472,-45.91562015,520,3.50E-05
mp-29862,62,56.51968842,4.294022341,Sn4Br8,0,430.8221761,,0.91812994,-38.4537993,520,0.00127605
mp-29868,187,3.445608194,5.569638046,Li1Au1C2,0.504999343,67.95503554,,-0.34385685,-22.71085034,520,7.10E-06
mp-29900,64,3.873838686,7.375735152,Ni4Ge8,0.039656125,183.6865272,,,-62.06625563,520,2.50E-08
mp-29920,55,37.89051263,5.481968797,Rb10Au6O4,0,636.2533047,,0.91963556,-63.63581421,520,0.0027228
mp-29928,6,31.64824122,1.614243677,Na3Li3N2,0.182748386,121.184292,,0.83440645,-26.46607664,520,1.77E-05
mp-29929,123,-14.75835248,1.982990705,Na1Li5N2,0.24490358,71.77126992,,2.31367201,-28.04213007,520,0.001408
mp-29941,164,-12.31800811,3.11829682,Sc2C1,0,54.27524701,,4.01837388,-23.15900179,520,0.0016593
mp-29966,19,14.45802338,1.639205182,N4O4F4,0,198.5691397,,-3.81063138,-66.03698537,520,0.000378125
mp-29981,71,2.97094347,7.391003143,Nb7B4C4,0,166.6225773,,,-143.7672225,520,0
mp-29986,194,5.36853346,5.133007279,La4Al4I2,0,296.7669802,,7.21590437,-45.82163921,520,0.0004623
mp-29995,214,29.55718885,4.899855308,La12Si4Br12,0,927.9148052,,,-143.1270825,520,4.27E-05
mp-30009,139,7.384955983,3.157160405,Kr1F2,0.006768192,64.05915601,,-3.42660139,-4.02643257,520,0.0020514
mp-30028,191,4.64722435,7.722851933,Y1Si2Rh3,0.040791259,97.57296661,,,-45.53514215,520,1.00E-06
mp-30031,164,22.38000493,3.385257605,Ca1I2,0,144.1576371,,0.03868556,-9.97760348,520,3.05E-05
mp-30033,164,11.18312455,4.346427564,Co1Br2,0,83.56938856,,0.87444438,-11.23704156,520,3.0001658
mp-30034,164,12.4792591,3.329358916,Mg1Br2,0,91.82753555,,-0.72906341,-9.39603983,520,0.0067331
mp-30037,88,6.002079644,5.508181475,Ag2I2O8,0.059621593,180.1391982,,,-49.30229146,520,0
mp-30041,166,-1.381345803,5.058445329,Rb1Bi1S2,0,117.710692,,2.46398771,-16.2092265,520,0.0001208
mp-30044,225,-1.188435856,8.601679742,Fe2Co1Ge1,0.114628403,46.96152896,,6.16390546,-28.71132718,520,5.3522189
mp-30045,64,2.534339153,7.703665222,Co4Ge8,0,176.0741014,,5.06427865,-67.23750498,520,1.50E-07
mp-30050,70,7.91501233,7.276740033,Ba2Ge4Ru4,0,221.236794,,3.97294394,-64.12773106,520,2.25E-06
mp-30053,59,3.608147633,1.634790124,Na2C2N2,0.203018799,99.55812263,,-1.81518064,-38.82189911,520,0
mp-30055,221,10.38355864,3.369878134,Rb3Br1O1,0.002613245,173.6024783,,1.32820614,-15.80799272,520,0.0001159
mp-30056,221,8.140653395,3.562562641,Cs1Ca1Br3,0,192.3606624,,-0.6351171,-17.74246446,520,0.0001815
mp-30057,62,3.36059748,1.008569226,Li4C4N4,0.310563872,217.0548475,,-3.94569562,-80.95698184,520,0.000253825
mp-30058,148,15.99250113,6.331429467,Tl2Sb2O6,0,196.2515955,,2.46787508,-55.67541762,520,0.00025225
mp-30060,189,10.53436753,9.411463833,Sn5B2Rh6,0,217.4782541,,8.44360739,-83.48408113,520,6.50E-06
mp-30062,225,33.51848359,4.630450711,Cs2Pt1Br6,0,337.2104245,,-0.48727308,-27.15917208,520,0.0001752
mp-30068,160,11.80714057,2.730178094,C1I1N1,0.493044292,93.00958636,,-1.35207363,-17.41842554,520,0
mp-30069,225,3.09203596,9.412686281,Cu1Ni2Sb1,0.05134638,53.39954998,,9.72546845,-20.15381289,520,3.50E-05
mp-30079,225,11.26265115,2.769527126,Li1Mg2Ge1,0.134186201,76.8601102,,3.69449259,-10.2618324,520,0.0002035
mp-30080,225,0.36451926,5.80064343,Li2Ge1Pd1,0.148975647,55.23313531,,,-15.23862205,520,1.00E-07
mp-30083,221,0.081659708,10.79207091,Tl1Bi1,0.126869782,63.60285871,,5.86737208,-6.05111687,520,5.00E-07
mp-30110,15,17.70573582,5.035514514,Sr2La2I8,0.010135116,484.1903207,,5.96570042,-44.09287422,520,0.000305
mp-30111,15,22.72833626,5.091366885,Ba2La2I8,0,511.3024212,,5.72116646,-45.33422525,520,0.00029555
mp-30148,17,2.007610448,3.418968262,B2C4N2,0.542473898,47.44076341,,8.98424118,-67.71257021,520,0
mp-30156,62,1.688944556,2.356174932,Li4Mg4N4,0.000936463,127.5692632,,2.89777887,-55.0273711,520,0
mp-30160,224,61.65979238,1.202422708,Si2C4N8,0.029397914,298.6640707,,-1.7288793,-117.1223333,520,0
mp-30207,221,7.823030674,5.196872368,La3Ga1Br3,0,232.0247025,,5.76563643,-32.65540207,520,0.0002334
mp-30208,129,-1.306941377,5.246027907,Y2Cu2P4,0,135.7287979,,6.57883259,-49.7244619,520,0.00015355
mp-30227,225,23.08882741,3.491749653,Rb2W1Cl6,0,269.8776749,,1.40743426,-38.3880518,520,2.0000246
mp-30228,88,-0.273771375,1.212586013,Li8H2N2,0.001756349,117.1638153,,,-43.26960021,520,0
mp-30241,164,0.015830099,3.060405912,Mg5H2O6,0.015061315,119.118259,,2.961732,-74.61866289,520,0.0038307
mp-30242,164,-0.67326579,3.012779159,Mg4H2O5,0.013708754,98.78692687,,2.8651338,-62.69562217,520,0.0001885
mp-30244,164,-0.835577704,2.611470397,Mg2H2O3,0.020088459,62.71146527,,1.75874075,-38.76971619,520,0.0001374
mp-30245,164,-1.711040177,2.473180055,Mg3H4O5,0.014335817,105.3749564,,1.48426944,-65.68059946,520,1.46E-05
mp-30247,164,1.222093062,2.304077071,Mg1H2O2,0,42.03075786,,0.55520332,-26.94229387,520,0
mp-30250,194,3.190698229,5.564904595,Y2Ag2O4,0,136.5292943,,1.11816377,-56.54000558,520,7.15E-06
mp-30251,194,1.953781444,7.736363938,Y2Au2O4,0.003036556,136.4562404,,2.02091723,-57.10025241,520,0.00050725
mp-30293,40,19.29783567,4.446258126,Sr4Ge2Se8,0,421.0637535,,1.49558775,-62.17626673,520,2.60E-05
mp-30294,40,17.1879156,3.59765079,Sr4Sn2S8,0,389.7522183,,2.28935887,-67.34758246,520,0.00036015
mp-30302,166,22.5575482,7.685253706,Hf2Br2N2,0.011412793,117.7142653,,2.40520153,-50.03734347,520,5.96E-05
mp-30303,2,13.00509606,8.908191312,Bi8O14,0,353.3947115,,4.42128642,-125.2693672,520,9.40E-06
mp-30312,15,4.174530999,7.931424593,Ca4Si2Ir4,0,206.2950715,,5.49602351,-61.60406437,520,3.65E-06
mp-30315,123,0.698066595,2.758641016,Ca3B1N3,0,104.1749736,,4.17059247,-45.28691473,520,0.0001295
mp-30332,194,13.14702773,7.270622768,Ba2Ag2Bi2,0.358376333,207.4585187,,2.84577396,-19.05630175,520,1.05E-05
mp-30337,182,1.390601312,5.700303081,Al10W2,0,185.7069635,,8.33378218,-65.31804321,520,1.75E-06
mp-30338,221,-2.392789177,4.455984708,Y3Al1,0.048873521,109.4480423,,3.90944434,-23.89250274,520,0.0162896
mp-30341,123,10.41834863,11.51057853,Ti1Ag1Hg2,0.138541536,80.34169863,,3.93089772,-10.91525537,520,1.793478
mp-30343,221,5.445315394,9.503016301,In1Ag3,0,76.60913338,,5.12576947,-11.39926462,520,2.46E-05
mp-30344,216,1.250095513,5.439873488,Li2In1Ag1,0,72.21321095,,3.65586055,-10.55964505,520,2.05E-05
mp-30347,225,3.134040151,7.893016855,Sc1In1Ag2,0,79.00015222,,5.58836954,-15.97839144,520,4.21E-05
mp-30349,216,3.13105263,7.040599065,Li2Ag1Pb1,0,77.58354712,,3.74433845,-11.43518048,520,0.0004514
mp-30350,225,-0.798339991,5.709228853,Li2Ag1Sn1,0.059651572,69.93826311,,4.1392007,-11.90140772,520,0.0004747
mp-30351,221,3.158442237,7.964747704,Mg1Ag3,0.008892629,72.53430927,,3.63974641,-10.7152516,520,0.0013177
mp-30352,227,6.129345306,6.076764838,Na2Ag4,0,130.4688052,,2.04914672,-14.54448458,520,2.00E-06
mp-30353,221,5.010083556,17.89164539,Ag1Pt3,0.047962662,64.32908356,,5.95666539,-20.89678491,520,0.0013102
mp-30357,148,10.5652393,4.384992388,Sr9Ag6,0,543.7145173,,2.212843,-36.24250244,520,3.62E-05
mp-30362,221,6.401710446,7.35455336,Zr3Ag1,0.104388685,86.14559803,,4.05742512,-28.3826522,520,0.0002745
mp-30363,191,6.163375777,9.969495571,Ba1Au2,0,88.48774677,,3.2337294,-10.69647489,520,0.0001005
mp-30364,191,11.69214241,13.40152743,Ba1Au5,0,139.0431234,,4.11995342,-20.94360172,520,0.0002976
mp-30365,198,3.675812865,12.98139821,Be4Au4,0,105.3925785,,5.53535035,-29.07834856,520,2.18E-05
mp-30379,62,0.002102853,11.95939982,Ga4Au4,0,148.1172794,,4.51684773,-27.07751174,520,8.00E-07
mp-30381,216,1.721947146,7.642885718,Li2Ga1Au1,0,60.95865632,,3.00279287,-12.16249409,520,0.0001072
mp-30392,216,2.684184681,7.695918157,Li2In1Au1,0,70.2686854,,4.38203604,-11.73457434,520,6.10E-06
mp-30393,225,3.922192186,13.63025588,Lu1In1Au2,0,83.29562337,,6.0643646,-16.54462914,520,1.77E-05
mp-30395,225,3.978353261,11.65337371,Sc1In1Au2,0,78.90008472,,6.56050528,-18.1185104,520,6.66E-05
mp-30401,194,19.06033789,10.0162884,K4Au8,0.005077799,287.158508,,2.87963341,-34.2607052,520,1.15E-06
mp-30403,216,4.688225484,9.063083378,Li2Pb1Au1,0.008473888,76.59490049,,4.34819371,-12.41656752,520,0.0002327
mp-30404,216,5.57637599,7.627414885,Li2Sb1Au1,0,72.41110156,,5.52223396,-13.37218113,520,5.25E-05
mp-30405,216,3.502856594,7.794049695,Li2Sn1Au1,0,70.21316148,,4.83562778,-13.20877036,520,0.0004084
mp-30406,216,4.108411466,9.276432584,Li2Tl1Au1,0.02846399,74.32908317,,4.02923833,-10.90308546,520,0.0001177
mp-30418,155,7.236235942,16.00173253,Sn1Au5,0.013399416,114.5173483,,,-20.66368446,520,7.50E-06
mp-30421,148,22.74039755,6.395379315,Sr9Au6,0,511.6024835,,2.87230266,-44.9070826,520,1.74E-05
mp-30428,194,40.58107642,4.510553686,Ba4Cu4,0,295.8017856,,2.63678705,-24.62600415,520,0.0001032
mp-30434,194,18.18733461,8.346845306,Ba2Tl4,0,217.2820291,,4.47781185,-15.62846797,520,1.96E-05
mp-30437,62,9.590690431,6.336370103,Ca4Sn4Pd4,0,278.0066382,,5.63221017,-54.47072998,520,1.02E-05
mp-30438,194,-8.767627406,4.407723577,Be8Cr4,0,105.5163393,,5.17099604,-71.17703979,520,0.0001517
mp-30449,216,4.942683041,7.408002286,Mg1Cu1Bi1,0.016875166,66.53617385,,5.68674966,-9.92571976,520,9.04E-05
mp-30451,194,6.033522953,7.0590223,Sr2Cu2Bi2,0.029140642,169.43909,,4.75739169,-22.48780465,520,8.84E-05
mp-30456,62,-3.889169163,5.693312568,Sr4Li4Bi4,0,354.1294028,,3.35172957,-39.90146043,520,4.27E-05
mp-30457,216,1.883206902,11.20576463,Lu1Ni1Bi1,0,65.59323288,,6.14580459,-16.10369983,520,0.0004564
mp-30459,216,1.884898685,8.481497421,Sc1Ni1Bi1,0,61.20780519,,6.79710497,-17.88179163,520,4.00E-07
mp-30460,216,2.70369867,8.63414949,Y1Ni1Bi1,0,68.5781999,,6.16560107,-18.15571934,520,3.56E-05
mp-30461,8,9.724774676,11.97583424,Bi2Pd4Pb2,0.001581691,174.4367717,,6.68238727,-38.23849276,520,1.65E-05
mp-30465,225,4.799927599,10.06288331,Y1Bi1Pd2,0.070068313,84.27811897,,5.94555071,-23.68895194,520,2.50E-05
mp-30469,191,3.662419262,10.60144208,Tl1Bi2,0.014445729,97.47982078,,5.95072746,-10.15976418,520,2.79E-05
mp-30477,156,13.91966327,3.639045995,Li3Ca3Sn3,0,226.8722145,,3.55704328,-28.82280051,520,0.000451233
mp-30478,62,2.500549629,4.775950615,Ca8Pb4,0,399.640528,,4.07624739,-37.53891938,520,1.75E-07
mp-30479,221,16.84210028,4.146141442,Ca3Pb1,0.040970406,131.1380588,,3.50010155,-11.24266728,520,0.0002666
mp-30481,191,4.706073763,15.07636134,Ca1Pt5,0,111.8488763,,5.52845886,-35.47120715,520,2.20E-06
mp-30482,225,12.66442686,4.034771086,Ca3Tl1,0.055875905,133.598583,,3.66632924,-9.07765808,520,0.000372
mp-30490,194,22.73155206,3.471522921,Mg6Cd2,0,177.2945564,,3.53987895,-12.10968474,520,8.54E-05
mp-30491,194,6.716519137,6.803537787,Mg2Cd6,0,176.4811139,,3.12593028,-9.21189033,520,1.39E-05
mp-30492,194,9.013746746,4.053197006,Na4Cd2Sn2,0,227.0485553,,2.82467914,-16.82866349,520,9.60E-06
mp-30493,123,3.580571827,14.62977028,Zn1Cd1Pt2,0,64.46897183,,5.04136678,-16.11359175,520,1.11E-05
mp-30494,194,5.7727303,7.28737211,Sc2Cd6,0,174.175162,,3.19783215,-19.93203072,520,0.00137715
mp-30496,221,3.852707219,4.884924147,Sr1Cd1,0,67.99681525,,2.04665849,-3.27182089,520,0.0001738
mp-30530,216,7.153778308,4.2762288,Tl1Cl1O4,0,117.9843447,,-0.42226466,-25.42817354,520,8.05E-05
mp-30532,4,61.24414462,5.412389993,Tl4Zn2I8,0,602.4349335,,1.18251503,-33.3356043,520,0.0020036
mp-30533,166,17.94813324,6.028824239,K2Pt4S6,0,289.4590945,,2.68220314,-59.36415519,520,4.15E-05
mp-30551,225,-16.80480926,8.691988991,Ga1Fe1Co2,0,46.50630698,,5.62140341,-26.617767,520,5.0229542
mp-30555,225,0.981242664,11.56214423,Ta1Ga1Co2,0,52.92880907,,6.03231,-30.47987168,520,0.0227444
mp-30560,216,6.588032493,7.592714152,Nb1Co1Sn1,1.012978817,59.16963586,,6.00343482,-19.1412602,520,0.0032764
mp-30563,189,2.78184131,8.364351006,Zr3Co3Sn3,0,160.131183,,7.53180449,-63.25934488,520,0.000452267
mp-30568,12,3.784902815,7.393200046,Zn13Co1,0,204.2208295,,3.34216739,-24.34960666,520,0.0011954
mp-30570,225,-3.239486637,8.399002441,Cr1Ga1Fe2,0.083454259,46.14654247,,6.32063549,-29.69532717,520,0.9884079
mp-30571,140,13.06571429,12.52240765,Tl4Au2,0,160.6469942,,5.5360738,-16.17921744,520,9.55E-06
mp-30572,140,0.726803036,11.88891911,Hf4Ga2,0,119.1962,,4.27561237,-48.28439001,520,9.36E-05
mp-30580,166,0.96152706,5.5684312,Sr1Ga1Cu2,0,84.8201953,,,-13.93580057,520,0
mp-30582,216,-8.756493008,14.07306241,Hf1Cu1Hg2,0.230956245,75.8957253,,5.2645733,-14.09366689,520,0.0001926
mp-30583,216,-7.17647889,11.9719086,Zr1Cu1Hg2,0.15969264,77.11190504,,4.99111884,-13.07080666,520,0.0002246
mp-30587,216,0.209276148,7.409329064,Mg1In1Cu4,0,88.14585269,,6.93112948,-21.34743276,520,0.00014
mp-30591,216,0.27600735,5.231753298,Li2Cu1Sn1,0,62.25347177,,5.04994449,-13.22417238,520,0.0002251
mp-30593,123,-0.330287117,8.744653696,Zn1Cu2Ni1,0.00311376,47.69978576,,6.19342007,-15.73556758,520,7.70E-06
mp-30595,225,2.266903458,10.68558089,Cu1Sn1Rh2,0,60.30560346,,8.18112277,-24.23268901,520,0.0002122
mp-30603,216,-23.23668197,8.493080703,Zr1Cu5,0.001056533,79.95733307,,6.41735163,-29.78731145,520,8.90E-06
mp-30635,221,-3.716094353,8.758539347,Fe3Pd1,0.098370203,51.93936508,,5.07852822,-30.31346318,520,8.4812902
mp-30648,225,3.624259724,2.792612423,Li1Mg2Ga1,0.005201546,74.49023932,,3.52873502,-8.83598214,520,9.50E-06
mp-30651,194,1.430453955,4.70933576,Mg2Ga4,0.009409665,115.4791003,,3.83862118,-16.06031625,520,1.00E-07
mp-30656,189,-1.148810974,6.991897115,Ti3Ga3Ni3,0,125.5991598,,6.42520083,-55.03699384,520,0.0031192
mp-30657,225,0.167235936,7.652007794,Ti1Ga1Ni2,0,50.99160383,,7.13597134,-24.64635983,520,9.88E-05
mp-30658,225,-0.235330818,8.117875034,V1Ga1Ni2,0.021939362,48.69420575,,7.10860059,-24.81161695,520,0.0001281
mp-30660,140,7.065765698,7.028487808,Ga10Pd2,0.006166307,215.0116505,,3.91203535,-43.68232913,520,1.70E-05
mp-30661,225,1.573900863,8.307616585,Sc1Ga1Pd2,0,65.46497833,,5.24129958,-23.201009,520,7.80E-06
mp-30662,146,8.266614627,9.659319622,Zn3Ga4Pd7,0.023078402,209.7410252,,4.75077961,-60.5882454,520,1.00E-06
mp-30663,65,4.768904996,16.02925101,Ga3Pt5,0.010118915,122.7166684,,6.9836322,-43.83949638,520,0.0009928
mp-30671,194,0.379131982,5.649650935,Ti4Ga2,0,97.26187019,,5.51812276,-40.05052842,520,6.49E-05
mp-30672,194,-1.54830994,5.416551189,Ti6Ga2,0,130.7964488,,5.65312796,-55.99621345,520,0.0005697
mp-30673,83,0.291924811,6.382989838,Ti4Ga6,0,158.6414354,,5.40888988,-54.3325411,520,1.55E-05
mp-30681,125,5.631363282,6.179388267,Y2Ga12,0,272.6154044,,3.86854826,-53.91583451,520,8.50E-07
mp-30684,127,2.306775422,6.80204663,Zr6Ga4,0,201.7035767,,3.91111487,-68.84887161,520,0.00283225
mp-30708,227,0.240597482,11.89879922,Hf2Ni4,0.046859074,82.58227882,,7.123934,-45.93693859,520,8.25E-05
mp-30719,62,7.350854663,6.366309392,Mg8Hg4,0,259.9976239,,3.93851807,-16.46178931,520,6.75E-06
mp-30720,127,16.56108224,12.23733388,Mn4Hg10,0.233807004,302.0087847,,2.92894281,-36.40060349,520,0.39116985
mp-30721,127,25.78264497,13.5857421,Hg10Pd4,0.036681873,297.2037514,,3.29294854,-24.6019998,520,1.75E-05
mp-30722,194,11.44711642,12.0168761,Sc2Hg6,0,178.7342427,,3.85964214,-16.29837401,520,2.00E-06
mp-30725,191,4.084288716,11.02884512,Y1Hg2,0.012786556,73.78893055,,3.74449066,-8.28926879,520,0.000569
mp-30726,194,-8.818798961,11.86347028,Y2Hg6,0,193.3488575,,3.60218128,-17.68902993,520,1.86E-05
mp-30727,225,3.032591219,7.681773166,Mg1Cd1Ag2,0,76.18826504,,3.59767956,-8.86420149,520,1.56E-05