material_id,spacegroup.number,delta_volume,density,full_formula,e_above_hull,structure.lattice.volume,band_gap.optimize_structure_gap,efermi,final_energy,encut,total_magnetization
mp-1605,14,16.67789823,6.554844654,Ag6O8,0,196.3825595,,1.40529315,-56.71879852,520,7.00E-06
mp-1606,191,2.562333059,15.18308697,Nb1Au2,0,53.24451001,,5.91578543,-17.0088175,520,4.49E-05
mp-1608,221,5.346899103,12.97550782,Zr1Hg3,0.024239191,88.68582314,,3.7098945,-9.70566746,520,3.19E-05
mp-1609,223,-2.29702286,11.5026198,Cr6Ir2,0.010333635,100.5350963,,7.78230266,-76.07282842,520,0.00274415
mp-1625,221,12.06687709,7.258143798,Sn1Sb1,0.119424105,55.0154191,,8.04239346,-7.89831051,520,0.0001135
mp-1627,11,-5.032302584,5.693219653,Mo4S6,0.094737392,168.0454341,,7.62298211,-75.04517062,520,2.75E-06
mp-1628,194,3.82472242,9.363462833,Te2Rh2,0.021098089,81.75680056,,8.28452428,-22.2673072,520,5.80E-06
mp-1630,223,4.669205445,8.921391372,Zr6Hg2,0,176.5488214,,4.18940709,-53.31953149,520,0.0001022
mp-1634,194,27.3354849,5.692223189,Mo2Se4,5.64E-05,148.1124076,,3.16441867,-39.7025109,520,2.53E-05
mp-1636,221,-8.690361574,8.581341559,Mn3Sb1,0.109992666,55.45374645,,8.23484065,-31.23293628,520,6.0953641
mp-1637,62,-85.30115888,16.02079869,Re8P4,0,167.2428797,,9.09357867,-124.7439535,520,1.88E-06
mp-1638,227,-0.257121644,3.302373367,Sr2Al4,0.008716472,142.3850068,,4.82725304,-19.88445222,520,9.89E-05
mp-1639,216,0.253209405,3.458088074,B1N1,0.076152137,11.91720941,,7.45823896,-17.42292926,520,0
mp-1641,194,1.930820524,7.008555132,Cr2Sb2,0.093532033,82.33616831,,7.20335576,-27.15480214,520,2.81831715
mp-1646,225,-0.359772221,5.233842408,Li3Hg1,0,70.24761194,,1.20803239,-7.14522587,520,0.0021557
mp-1648,204,0.742421469,3.956299072,Al12Re1,0,214.0512525,,7.73993429,-59.17860749,520,1.24E-05
mp-1649,221,-5.157570925,11.41061646,Fe3Pt1,0.036060782,52.77041851,,5.67300576,-31.77119202,520,8.4913575
mp-1652,123,1.813274533,9.828833972,Zn2Pd2,0,58.05953453,,4.35472328,-15.17120512,520,1.05E-06
mp-1662,164,0.144345226,9.358058682,Te2Au1,0.011471013,80.23461553,,6.48300833,-9.77457578,520,9.62E-05
mp-1664,223,0.037730678,7.705175431,V6Pd2,0,111.7393412,,6.12674893,-65.91339471,520,0.00012665
mp-1667,194,-26.19633042,9.080652836,Co4Ge2,0.051611252,69.67413107,,6.01769114,-38.24367067,520,0.0008396
mp-1670,123,2.017837483,13.67093014,Mn2Pt2,0,60.73783748,,6.18035304,-31.84201701,520,2.20850345
mp-1671,191,9.147283224,6.418616832,Yb1Si2,0.058349098,59.29841644,,5.61142949,-13.44353307,520,2.12E-05
mp-1672,225,0.809893114,2.565498122,Ca1S1,0,46.69512987,,2.6856325,-10.43881148,520,5.10E-06
mp-1677,194,-9.020019818,6.043442675,Be8Mo4,0,125.2546178,,5.98799705,-77.15234721,520,1.03E-06
mp-1682,194,5.000029172,6.65020086,Zr4As4,0,165.9446149,,5.62756439,-61.96590222,520,0.00030175
mp-1683,11,18.21787921,5.205999163,Zr2Se6,0,209.3083322,,2.85199479,-46.43919624,520,3.64E-05
mp-1684,221,0.131355356,13.36739014,Zn1Au1,0,32.59311436,,4.6203198,-4.95005651,520,0.0001319
mp-1687,227,8.696303784,8.64932243,Ba2Pd4,0,134.4535318,,4.22864785,-28.03749334,520,1.60E-06
mp-1689,194,4.111794845,17.50431044,Hf4Re8,0,209.045104,,6.44868579,-144.1679942,520,5.75E-07
mp-1690,164,10.89592286,5.921968158,Ta1S2,0.020789783,68.72063084,,3.85415994,-23.20202314,520,0.0001241
mp-1691,64,-4.824098801,7.853697801,La4Ni6,0.003560879,191.9360732,,8.93708898,-57.69216942,520,3.60E-06
mp-1692,131,-20.98614215,5.98359055,Cu2O2,0,44.15016069,,4.43467772,-20.47862276,520,0.00081715
mp-1696,123,-5.058603464,10.30173516,Cd1Pd1,0,35.27341879,,3.74945145,-6.92914601,520,1.04E-05
mp-1702,227,3.109606207,9.959711957,La2Rh4,0,114.9461267,,8.37250879,-43.49301899,520,4.05E-06
mp-1703,221,-0.677418663,8.403950358,Yb1Zn1,0,47.11520853,,1.968725,-3.46285091,520,0.0002104
mp-1707,11,10.40305519,3.091623361,Ba2N12,0,237.796675,,0.20792143,-106.4180584,520,0.0003464
mp-1708,225,0.219133609,6.09611469,Y1Te1,0.00602157,58.97468053,,6.71573442,-12.23857567,520,4.99E-05
mp-1718,227,-0.828262758,7.692950769,Zr2Fe4,0,87.59879762,,5.02040203,-52.63694166,520,0.00019925
mp-1726,140,16.01791417,2.04941153,K4O12,0.079061962,282.2803256,,-0.49867723,-74.13957225,520,0.9999613
mp-1728,227,2.827527562,12.03918888,Lu2Rh4,0,105.0397565,,5.35592302,-43.09614537,520,2.84E-05
mp-1731,191,-25.55452603,8.315715562,La1Co5,0.033029906,86.57851578,,6.6051158,-40.57015351,520,6.7856444
mp-1734,191,0.47885172,5.681813396,Ca1Zn5,0,107.2935754,,2.83390285,-9.68910051,520,1.40E-06
mp-1739,193,9.914374075,11.97041374,Hf10Ge6,0.003308968,308.0616551,,5.28456512,-138.1416244,520,6.70E-06
mp-1746,205,25.93345438,3.28615773,Mg4F8,0.066770427,125.9277129,,-0.06914335,-63.14730091,520,0
mp-1747,225,4.032300095,2.450266539,K2Te1,0,139.467802,,-0.24062247,-8.43623968,520,0.00026
mp-1761,227,2.340111807,17.49126384,Lu2Ir4,0,106.2138457,,6.84171241,-49.47488166,520,1.28E-05
mp-1768,227,1.047730171,14.76893164,La2Os4,0.022674568,116.7893061,,8.76258915,-55.03557721,520,1.10E-05
mp-1769,194,6.464886396,8.96918891,Sb2Pd2,0,84.48964604,,7.23874905,-20.38394042,520,2.22E-05
mp-1771,14,22.44595068,1.651706406,N4O8,0.00049647,185.0060726,,-2.14070628,-75.56537157,520,4.20E-05
mp-1773,194,0.782136738,12.48326893,Re2B4,0,55.29131351,,7.73406915,-54.17992291,520,3.95E-06
mp-1775,194,6.400606654,10.94486595,Sn2Au2,0,95.78797387,,6.41004449,-15.29764607,520,6.95E-06
mp-1780,221,0.998533163,7.244992194,Sc1Rh1,0,33.88956683,,5.92709805,-15.76452614,520,1.80E-06
mp-1782,225,0.95535368,5.002107783,Sc1Se1,0,41.13610072,,6.45993947,-13.00413118,520,0.0006393
mp-1784,225,2.435292836,4.406028778,Cs1F1,0,57.24934957,,-1.29030261,-8.03004722,520,4.79E-05
mp-1786,223,1.895107662,8.460278544,Ti6Au2,0,133.6896276,,6.09014863,-56.73749554,520,8.35E-06
mp-1794,225,3.856980271,3.418547561,Be1O1,0.481968845,12.14922642,,4.81015598,-13.24221274,520,0
mp-1795,221,13.17307962,3.371713121,Nb1F3,0.168251479,73.82521371,,1.83239928,-26.20458194,520,0.0006824
mp-1796,82,70.61687893,8.140545471,Tl10Te6,0.145864333,573.0786952,,4.9744834,-44.80403254,520,4.70E-06
mp-1797,123,1.94669798,7.628919551,Mn2Ni2,0.036927386,49.46688698,,6.39507213,-30.02780305,520,2.18316795
mp-1799,227,-27.60213552,13.02599454,Ta2Co4,0.017526286,76.18500985,,6.0468692,-53.45723609,520,0.00901105
mp-1802,166,9.062046775,3.948506067,Nb1S2,0.036615682,66.04144334,,3.80010769,-21.29774097,520,0.0021254
mp-1804,182,-1.072870954,7.421218124,Fe6N2,0,81.24194039,,6.20644669,-68.00360652,520,6.1675088
mp-1806,14,20.1098751,2.880356532,Rb4O12,0.077910261,307.775098,,-0.3635451,-73.46081298,520,0.99995975
mp-1811,225,8.401302749,9.352174567,Hg1Te1,0.152953255,58.27225568,,4.12432581,-3.47739595,520,1.24E-05
mp-1814,191,10.79782407,7.88992437,Ba1Ag5,0,142.4137392,,2.75918467,-17.07144736,520,0.0025664
mp-1818,217,5.475638491,1.973391565,Si1F4,0,87.57888353,,-5.05177861,-28.58334279,520,0
mp-1820,225,-0.318411133,7.498294273,Yb1S1,0,45.4216449,,1.98408477,-10.16995285,520,1.40E-06
mp-1821,194,23.56033457,7.857113202,W2Se4,0,144.4565727,,3.35820766,-43.23456953,520,1.77E-05
mp-1822,194,1.16266376,5.83628964,Ti4As4,0,139.7430741,,6.60065206,-57.58731615,520,0.00012005
mp-1823,194,0.127703682,4.248868309,Ti6Al2,0,133.3338406,,6.28600027,-57.08890109,520,2.74E-05
mp-1825,129,1.053971695,8.363480558,Cu4Sb2,0.01921577,98.81734245,,8.20190417,-24.53739701,520,8.40E-06
mp-1831,191,6.168059417,13.41846931,Sr1Au5,0,132.7163164,,4.26960605,-20.75403685,520,1.74E-05
mp-1832,191,2.827790531,16.13039601,La1Pt5,0,114.7139193,,7.39009358,-39.84918218,520,0.0002602
mp-1836,140,-57.0580915,7.714675509,Tl4Se4,0,243.9519904,,3.54869644,-25.63765828,520,8.20E-06
mp-1848,205,11.51814046,8.752830859,Te8Ru4,0.006089176,270.3583576,,7.91583212,-66.17926667,520,1.47E-05
mp-1851,62,-35.66105719,10.58337649,Sn4Pd8,0,208.0816908,,7.58782677,-64.05680307,520,2.30E-06
mp-1860,62,0.86631367,5.409187188,La4Si4,0.013365897,205.054856,,8.22354738,-47.35077554,520,3.88E-05
mp-1861,191,23.65068459,6.185850338,Cu4Te2,0.13416548,136.739813,,4.80484278,-22.12759001,520,0.000143
mp-1864,11,9.340984233,3.767286941,La4P20,0,517.9575312,,7.10503032,-141.5549892,520,0.00114225
mp-1867,140,0.343108877,14.78623529,Ta4Ni2,0,94.46687493,,6.30198276,-60.39116441,520,4.00E-06
mp-1868,62,-4.122631933,5.071600998,V4S4,0.068698774,108.7116545,,8.70045863,-60.03982359,520,0.0008161
mp-1869,62,8.150476085,10.34733798,Ga4Pd8,0,181.3826489,,4.98368871,-61.26833569,520,8.75E-07
mp-1871,58,-0.500124628,7.20957973,Fe4C2,0.057131664,56.98247313,,6.15959976,-51.94748066,520,6.05E-06
mp-1873,136,3.854475107,4.67488017,Zn2F4,0,73.46044058,,-1.75167161,-23.93210006,520,6.50E-07
mp-1874,187,2.49151468,1.799714185,Nb1S2,0.003736955,144.8924734,,-1.86871522,-21.39637715,520,0.3070497
mp-1880,40,5.817615138,4.23388719,Sb2F6,0,140.2163028,,0.40416057,-38.43751506,520,9.50E-07
mp-1882,191,0.056934133,6.536938961,Ca1Cu5,0,90.89180063,,5.49308222,-23.22470169,520,4.14E-05
mp-1883,225,3.017728944,6.190813061,Sn1Te1,0,66.06682626,,6.32193769,-7.72291574,520,0.0001892
mp-1884,140,1.657352125,3.12390295,Ca10Ge6,0,444.7129741,,2.65190851,-57.83032027,520,2.65E-05
mp-1885,221,0.937681746,13.24493472,Al1Ir1,0,27.48127783,,10.57717999,-14.50456252,520,1.70E-06
mp-1894,187,0.855680614,15.35036235,W1C1,0,21.18632289,,7.81171758,-22.42973242,520,3.41E-05
mp-1895,225,1.885059677,14.28616836,Ta1O1,1.105038719,22.89197769,,8.86652376,-18.57562954,520,0.0001647
mp-1900,2,5.863417958,4.6337473,Ca2As6,0,189.8169151,,4.52375634,-36.42798126,520,2.15E-06
mp-1902,221,-0.681283087,8.763529335,Mn1Pd1,0.014790968,30.57459191,,5.00098249,-14.71646388,520,4.4369146
mp-1907,164,4.215638473,5.967716968,Ti1Te2,0,84.32949952,,5.74077561,-16.26948547,520,1.07E-05
mp-1909,227,-0.439716851,3.677356631,La2Mg4,0.010585422,169.3481431,,5.17511005,-17.00974993,520,0.00035165
mp-1912,221,-5.389513857,8.853680319,Zn1Ag1,0.000833375,32.49875136,,3.41950765,-4.20199648,520,4.36E-05
mp-1914,191,1.182326309,5.954497519,Y1Ga2,0,63.68079936,,3.63633399,-14.51813901,520,9.22E-05
mp-1915,140,-31.03518648,7.49031769,Fe4B2,0,54.31483719,,6.76580801,-49.08193697,520,3.73840915
mp-1916,225,8.714805301,7.535913324,Yb1Sb1,0.269070197,64.95920109,,2.78215647,-6.93686477,520,9.77E-05
mp-1918,221,0.863394914,9.581021645,Fe1Rh1,0,27.51391372,,5.95556031,-15.90775703,520,4.2551387
mp-1919,194,-70.25508339,7.120186158,Zr4Cr8,0.018299136,182.1099135,,5.36760508,-111.5966746,520,1.55E-05
mp-1922,205,8.179453197,7.930411877,Ru4Se8,0,216.9183708,,5.80646184,-70.09946507,520,2.73E-06
mp-1925,225,1.767109552,5.668866381,Zr1S1,0.089902507,36.11413357,,7.76918066,-15.36834086,520,9.40E-06
mp-1932,223,4.663450257,11.20767515,Nb6Os2,0,138.9598368,,5.61041431,-85.03422517,520,2.30E-06
mp-1934,227,-1.366424388,4.082777765,Li2Zn2,0,58.85208868,,1.48201656,-7.2099954,520,1.00E-06
mp-1935,194,-72.32210799,3.006426188,Ba4Mg8,0,410.7942496,,2.54600161,-21.52351917,520,0.00031825
mp-1941,221,1.01906372,8.621636084,Ga1Ni1,0.037151302,24.73317634,,6.91230901,-9.53383094,520,0.0003791
mp-1943,194,29.39472148,4.408077424,Ga4Se4,0,224.0377401,,1.26372298,-30.81571044,520,2.42E-05
mp-1948,221,-3.190071819,7.220855594,La1Ag1,0,56.74913558,,6.28437505,-8.28500468,520,0.0002218
mp-1950,140,3.907581388,3.450263551,Sr2S4,0.01089953,146.0681456,,3.98382325,-28.18975077,520,4.15E-06
mp-1953,123,-0.162797911,3.833900964,Ti1Al1,0,32.4183962,,6.97524038,-12.45059353,520,3.00E-06
mp-1958,225,2.187905733,4.701968738,Sr1Te1,0,76.00671806,,2.68867417,-8.3189605,520,5.98E-05
mp-1960,225,-4.936828559,1.962811795,Li2O1,0,25.27966838,,-0.07984797,-14.26372819,520,0
mp-1961,123,0.959059978,7.428255113,Ti2Ag2,0.16533837,69.62722081,,4.83677163,-21.05807777,520,0.4419837
mp-1963,123,2.787574071,10.111758,Nb2Rh2,0,64.31191712,,6.00870343,-36.53593025,520,5.05E-06
mp-1967,12,56.55738349,8.612115883,Ta9Te18,0,756.8599083,,5.94725258,-173.0623645,520,8.37E-05
mp-1968,164,0.11788083,6.516974081,La2O3,0.024227712,83.016871,,5.81117171,-41.90315718,520,1.62E-05
mp-1981,62,21.58998028,4.8344474,Ba8Sn4,0,540.4516586,,3.05798237,-38.69659112,520,4.50E-07
mp-1984,194,17.95166443,6.114812848,Ta2S4,0,133.1067353,,3.34187025,-46.52878498,520,0.0022635
mp-1985,176,1.774785205,3.5014297,C6N8,0.325434853,87.31713073,,9.29590665,-114.4165311,520,5.00E-08
mp-1986,216,2.205879325,5.44638357,Zn1O1,0.006964028,24.82047484,,0.88020582,-9.08667532,520,0
mp-1994,191,0.059725828,11.12172078,Hf1B2,0,29.87791144,,7.78186408,-26.38258949,520,5.40E-06
mp-2000,58,2.896034411,6.155328827,Cu2Se4,0,119.4909157,,4.65032002,-22.67469689,520,9.92E-05
mp-2001,221,-32.03734081,10.56459097,La1Tl3,0,118.2078232,,7.27392246,-13.52592149,520,0
mp-2006,223,0.058443906,10.44656861,V6Ir2,0,109.6924554,,7.19268261,-76.12373737,520,6.20E-05
mp-2008,58,3.342097742,7.424134646,Fe2As4,0,92.01160874,,6.32082433,-37.11756534,520,0.00020935
mp-2012,221,1.939399569,9.209099742,Li1Hg1,0,37.42095722,,2.19546114,-2.94947648,520,0.0001443
mp-2017,225,0.654295799,8.930006998,Lu1As1,0,46.46690378,,3.97393255,-12.11859538,520,0.0005665
mp-2019,227,-1.602041764,9.818666805,La2Ru4,0.013796646,115.3556442,,8.60872871,-47.70100696,520,0.00020435
mp-2025,191,-0.820387349,6.088097658,Hf1Be5,0,60.97389272,,4.26100828,-30.06360031,520,2.09E-05
mp-2027,221,-0.446314249,12.61270476,Hf1Co1,0.003046825,31.25820288,,5.60703766,-17.85631338,520,0.5147193
mp-2028,227,0.148746897,5.269013735,Be4Nb2,0.027740769,69.92004213,,4.10652037,-36.28742425,520,5.11E-05
mp-2030,205,7.179193137,6.065014078,Ru4S8,0,180.9203051,,7.44283931,-76.72639256,520,2.50E-08
mp-2031,227,0.299709671,5.046498911,Be4Cu2,0,53.68108716,,5.76742447,-23.98783542,520,2.51E-05
mp-2033,182,-0.326631861,8.019194904,Ni6N2,0,78.72279505,,8.07441247,-51.08489162,520,2.15E-06
mp-2034,60,4.764273498,16.56717665,W8C4,0.073937953,152.2265969,,8.05759801,-140.7668879,520,2.88E-06
mp-2039,194,-14.56202672,6.156885052,Sc4Mn8,0,167.0354939,,5.54081673,-100.3162395,520,0.004900025
mp-2044,193,3.506641112,5.336250833,Zr10Al6,0.06060693,334.2484412,,4.74746943,-113.6297917,520,7.98E-05
mp-2049,227,1.433395691,8.470043763,Zr2Mo4,0,111.0042067,,6.24398729,-61.31355006,520,2.10E-06
mp-2051,191,-0.262814162,7.117533388,La1Cu2,0,62.05790115,,7.30870461,-13.77862628,520,0.0002742
mp-2052,225,0.012429067,4.813229523,Sc1As1,0,41.35711538,,4.80754382,-13.73724377,520,1.98E-05
mp-2053,223,4.357522174,8.873377114,Nb6Sb2,0,149.8890982,,7.00981643,-71.09052159,520,7.37E-05
mp-2056,155,-0.142374632,7.305188691,Ni3Se2,0,75.92142995,,6.44085508,-25.64639838,520,2.02E-05
mp-2058,62,-1.369266111,8.260441254,Ni12B4,0,150.2777512,,8.25214421,-100.2497333,520,1.48E-05
mp-2064,221,6.275435135,4.206233875,Rb1F1,0.099777945,41.24121813,,-1.77816935,-7.97934009,520,6.45E-05
mp-2068,167,7.421188155,5.294263336,Rh2F6,0,100.3053131,,0.78339732,-38.0760656,520,1.25E-06
mp-2070,205,-2.61496469,4.895914562,Co4S8,0,166.9565407,,8.08953897,-65.59472594,520,0.0051089
mp-2072,194,3.56292637,3.207599495,K4Te4,0,345.1915184,,1.37661101,-23.71428441,520,6.00E-06
mp-2074,225,-0.363798874,3.352100949,Li3Sb1,0,70.63171473,,3.30887751,-12.38543439,520,0.000125
mp-2075,227,-0.75955862,3.946041032,Si6N8,0.146924045,118.0656229,,9.11024058,-112.4882872,520,0
mp-2076,164,7.671205142,4.935217673,Zr1Se2,0,83.82879257,,2.2652907,-19.52611457,520,5.60E-06
mp-2078,129,0.308064955,6.440934596,Ti2Cu2,0,57.44682959,,6.4471136,-24.54262329,520,7.50E-06
mp-2082,225,1.149628058,15.75040303,P1Ir2,0,43.79575589,,9.51086014,-24.32429503,520,1.64E-05
mp-2083,225,3.114709465,10.68576004,Sn2Ir1,0,66.7644612,,8.38589068,-17.74194718,520,0.0001126
mp-2089,11,-13.88666224,6.430113205,Zr2Te6,0,244.8278383,,5.27817073,-41.68184531,520,6.05E-06
mp-2090,221,-0.600734708,8.290364795,Fe1Co1,0,22.98978132,,5.60958872,-15.68937438,520,4.5194289
mp-2091,127,-1.005139786,5.84606429,V6B4,0,99.10093673,,6.91138925,-88.45285011,520,2.16E-05
mp-2095,62,18.27666232,4.371662479,Rb8Te12,0,841.3271483,,2.41194578,-59.89886034,520,2.12E-05
mp-2097,129,5.829036292,5.94245657,Sn2O2,0,75.28543629,,6.28466311,-23.06200903,520,4.85E-06
mp-2099,194,-1.434998061,5.07241525,Fe2S2,0.259625045,57.55758542,,8.31205463,-26.19080719,520,0.0009781
mp-2103,221,4.257292977,16.3192795,Cu1Au3,0.00716365,66.5919501,,5.4481253,-13.98218328,520,0
mp-2105,127,2.014720473,10.8274376,Hf6Si4,0,181.4728497,,6.43443085,-89.45991955,520,7.80E-06
mp-2108,193,-1.224909721,4.335194697,Ti10Si6,0,247.8948957,,7.34979445,-123.7894519,520,1.91E-05
mp-2114,225,1.465245982,5.742755172,Y1N1,0,29.75754701,,4.19876261,-18.17802279,520,1.70E-06
mp-2116,227,-4.430951002,7.670873042,Zr2Mn4,0,87.06559176,,5.4719362,-54.85139429,520,0.00058765
mp-2118,204,-0.080183831,6.672955996,Rh4N12,0.442712158,144.2566784,,8.1261963,-117.7742902,520,3.75E-07
mp-2121,221,0.216215941,3.017274,Sc1Al3,0,69.28861667,,7.15142455,-19.38200508,520,7.30E-06
mp-2126,221,1.547258729,20.07022394,Hf1Ir3,0,62.4776841,,8.04219771,-39.74260269,520,0
mp-2128,68,14.11848131,7.73265672,Sn8Pd2,0,249.6438048,,7.60551375,-44.81086653,520,3.05E-06
mp-2130,227,-0.631189176,11.05705622,Lu2Ni4,0,87.8108764,,5.96843907,-35.26338723,520,2.41E-05
mp-2132,225,0.284801896,6.102431236,Cr1N1,0.182914085,17.96009195,,7.94132924,-18.64525991,520,2.4479362
mp-2133,186,4.455953547,5.437863971,Zn2O2,0,49.71872305,,0.86751486,-18.20120675,520,8.50E-07
mp-2142,205,11.05393429,10.91771064,Te8Os4,0,270.9923093,,8.08857122,-70.89927647,520,6.00E-07
mp-2150,140,10.11099396,5.442343659,Ba2Te4,0.003169792,239.5315139,,4.13310471,-23.56050189,520,6.15E-06
mp-2152,191,-22.2233367,7.804515888,Y1Ni5,0,81.35610899,,6.3843536,-37.30945481,520,1.4906043
mp-2156,164,7.489049771,2.865290195,Ti1S2,0,64.90630206,,3.47595654,-19.98793483,520,2.50E-06
mp-2157,194,-11.89935587,12.92345574,Co6W2,0,92.67739559,,6.40639005,-69.22078373,520,0.0013347
mp-2164,148,-28.0840375,5.040744872,Mo6S8,0.066397425,274.1329313,,5.2091973,-107.6353908,520,2.25E-06
mp-2170,191,0.243570798,8.504146482,Li2Pt1,0,40.80317781,,2.9338092,-11.48377589,520,9.75E-05
mp-2172,216,1.795286593,3.590700647,Al1As1,0,47.12566058,,3.59386681,-9.37404722,520,0
mp-2175,225,2.369060825,8.090506875,Tl1F1,0.03467681,45.8480593,,1.86911453,-7.6735518,520,5.00E-07
mp-2176,216,-1.189112362,5.418812151,Zn1Te1,0,59.14561543,,2.72497244,-5.35144786,520,0
mp-2179,221,0.428049074,12.81342318,Ti1Re1,0,30.33451794,,6.56438236,-21.13963431,520,1.15E-05
mp-2182,225,2.030191762,6.560008341,Sn1As1,0.014690454,49.01408877,,6.53903251,-8.78005293,520,4.78E-05
mp-2184,227,58.97050578,3.295395967,As8O12,0.009669677,398.7664872,,-0.68812186,-120.6909072,520,8.53E-06
mp-2187,194,-2.823929012,6.344018075,Ti2Sb2,0,88.79932321,,7.39951273,-25.89135671,520,0.0018672
mp-2189,194,3.911652891,5.738457146,Cr2Se2,0.127748441,75.78961071,,5.31750506,-27.47951438,520,3.895263
mp-2192,194,5.11791917,15.25886286,B2Pt2,0.201873461,44.81286563,,8.16205451,-25.21940439,520,1.92E-05
mp-2194,164,7.617871813,4.692579064,Ti1Se2,0,72.820797,,3.10830393,-18.21787142,520,4.00E-07
mp-2195,221,0.155988279,6.386851698,Lu1Mg1,0,51.80939706,,3.01982621,-6.2118566,520,0.0361965
mp-2197,221,4.738971377,7.458273956,Ba1Hg1,0,75.23515147,,2.47885832,-3.28648844,520,1.49E-05
mp-2199,225,-22.91171635,7.388610726,Fe3Si1,0,43.96435126,,7.72821351,-32.073999,520,5.1104194
mp-2201,225,10.29914964,7.886313735,Pb1Se1,0,60.25373421,,4.50062862,-8.33091606,520,0
mp-2203,221,2.911260831,3.699194892,Y1B6,0.030011104,69.02695523,,6.64377398,-49.33714589,520,8.84E-05
mp-2205,221,0.901408244,11.47257833,Lu1Pd1,0,40.72790662,,4.37274551,-11.65771248,520,0.0015164
mp-2206,227,-29.52657626,11.00089763,Lu2Co4,0,88.40392712,,4.54195941,-39.22648938,520,1.8571765
mp-2207,194,17.14505102,5.742426676,Nb2Se4,0,145.0630612,,2.93343151,-39.21854595,520,0.0188871
mp-2210,221,0.33109659,7.32766021,Zr1Cu1,0.034847618,35.07280904,,5.22577425,-12.86771961,520,0.3490299
mp-2211,223,-0.129591025,10.3494677,V6Pt2,0,111.6416155,,6.8949708,-70.05455347,520,0.0021362
mp-2212,221,-1.197483495,5.682769936,Sc1Co1,0,30.3570125,,5.07014563,-14.1729615,520,0.0031318