material_id,spacegroup.number,delta_volume,density,full_formula,e_above_hull,structure.lattice.volume,band_gap.optimize_structure_gap,efermi,final_energy,encut,total_magnetization
mp-4142,216,-2.218353484,8.06923476,Mn1Sb1Pd1,0.203808117,58.26185266,,5.8414492,-18.73979512,520,0.0029543
mp-4150,164,-0.648595788,4.9656851,Ca1Mn2Sb2,0.203515848,131.5788405,,4.37845046,-29.45158728,520,0.231044
mp-4156,15,1.94148765,4.032147457,Li4Zr2O6,0,126.1042678,,1.20637197,-86.77713942,520,0
mp-4165,14,1.790614306,10.70297224,Ta4N4O4,0,130.9159032,,4.54669664,-123.588668,520,5.75E-07
mp-4170,221,-6.736505652,6.620261075,Na1Ta1O3,0.014438664,63.19226818,,1.70090172,-41.23445064,520,0
mp-4182,160,1.873192599,5.01336224,Cr1Ag1S2,0,74.19198177,,4.12328841,-22.6018342,520,2.9998845
mp-4187,36,8.986205367,4.414860251,Ge4N4O2,0,142.3954855,,1.16717572,-67.09512844,520,2.15E-06
mp-4190,148,5.868495177,4.950347434,Ca2Sn2O6,0,138.7282661,,3.26273446,-64.38641005,520,2.30E-06
mp-4194,227,3.184538967,3.903331979,Zn2Cr4S8,0,253.2595464,,4.62720883,-84.63477927,520,0.9021395
mp-4198,218,12.86989844,6.076725855,Ag6P2O8,0.000330451,228.7619164,,2.01165014,-84.4993121,520,1.85E-06
mp-4200,141,4.473754788,3.585445243,Sc2P2O8,0,129.6099566,,2.9809005,-97.81929059,520,2.80E-06
mp-4223,114,26.67021416,2.644313104,Na24P8O32,0.004459258,823.5934907,,1.10727647,-372.7065982,520,2.32E-05
mp-4226,164,1.007173525,3.206620757,Li1Cr1S2,0,63.7299324,,4.47430574,-23.78218979,520,3.0000781
mp-4227,194,6.696825314,4.183296134,Ba2V2S6,0.01389578,225.8328036,,4.40520749,-60.35387093,520,5.65E-06
mp-4230,221,2.531095243,6.159751572,Sc3Tl1C1,0,94.69275166,,5.48710839,-33.69519136,520,6.32E-05
mp-4233,129,4.909474292,3.961366651,K2Mn2Sb2,0.145050281,180.9164802,,3.14967036,-29.64916234,520,0.1440604
mp-4236,152,6.837669871,5.545033699,Ba3Zn3O6,0,210.8840021,,1.0991388,-63.47374601,520,3.16E-05
mp-4247,129,10.08848494,4.641406324,Na2Zn2Sb2,0,150.3754753,,3.67073353,-15.26031663,520,1.45E-06
mp-4248,38,0.216094715,5.877645888,Y1Co1C2,0,48.55361888,,5.58459823,-33.36528955,520,1.11E-05
mp-4249,14,15.24464079,5.463501434,Hg2C4O8,0.249009936,175.435668,,0.33494251,-89.28843301,520,0
mp-4262,216,0.19780982,2.543526382,Be1Al1B1,0,30.55642212,,7.33815949,-14.32263643,520,2.30E-06
mp-4264,11,21.35084394,2.182967922,K4S4O10,0.056409341,338.2340287,,0.30086275,-99.20211417,520,3.30E-05
mp-4266,148,9.682235601,3.076756014,K1As1F6,9.98E-05,123.0581934,,-3.16630568,-36.40366899,520,2.00E-06
mp-4276,44,6.80975875,6.537695985,Na2Si4Pd6,0,202.3933946,,5.42830545,-62.87473535,520,1.70E-06
mp-4280,166,1.471956942,6.044513899,Ga1Cu1O2,0,45.40210157,,3.74438801,-22.3416511,520,0
mp-4336,194,2.675303105,7.196886708,La2P2Pd2,0,127.5011488,,8.23774425,-38.91582331,520,4.95E-06
mp-4338,227,8.334709308,4.159345405,Cr4Cd2S8,0,275.200371,,3.80450177,-83.14278338,520,5.99977165
mp-4342,99,3.560241779,4.365393079,K1Nb1O3,0.00206528,68.47076635,,1.34659699,-38.26592512,520,2.00E-07
mp-4343,164,-10.88055172,5.452100465,Sr1Mn2As2,0.092222139,105.788669,,3.98269423,-31.55680373,520,0.0001373
mp-4360,161,-0.331574375,4.226041796,Na2Cd2F6,0,151.1963438,,-2.23544741,-39.92142317,520,9.05E-05
mp-4364,225,0.505124945,8.743218447,Nb1Ga1Co2,0,53.2726226,,5.75651729,-28.58113226,520,0.0126333
mp-4367,225,-3.706033545,9.13091417,Cu2Ni1Sn1,0.156457974,55.37523295,,8.9661795,-17.83792444,520,7.00E-06
mp-4368,198,13.04615019,7.690997619,Sb4Pd4Se4,0,265.254515,,6.13050775,-56.1792205,520,5.00E-07
mp-4382,191,1.256399872,8.584134489,Y1B2Ru3,0,80.03460956,,6.53238048,-50.45725367,520,1.05E-05
mp-4384,166,10.26722322,4.889648429,Nb2C1S2,0.017289852,88.96016826,,4.5061703,-41.96490262,520,3.65E-05
mp-4385,167,6.805552538,4.744605226,Cd2C2O6,0,120.6886397,,0.91645371,-63.47008257,520,0
mp-4405,221,10.8033033,4.396740854,Rb3Au1O1,0,177.2690698,,0.91431783,-14.55793901,520,1.08E-05
mp-4406,63,6.732794103,2.852169809,Ca2S2O8,0,158.5226661,,1.24577427,-78.36828136,520,0
mp-4409,227,10.49436788,6.904132719,Cu2Rh4O8,0.02084835,160.3527481,,4.17057142,-86.39414589,520,0.035903
mp-4419,127,2.494915774,4.360939556,Na2Nb2O6,0.02738682,124.8139131,,1.5974182,-76.592853,520,8.05E-06
mp-4431,161,28.99399535,5.125111603,Ag6As2S6,0.002660379,320.5798938,,2.75879726,-52.47547232,520,7.35E-05
mp-4448,221,2.942077373,4.32741149,Y3Al1C1,0,117.3087052,,3.5282543,-34.48301517,520,7.30E-06
mp-4453,152,9.260447253,5.846630384,Tl3N3O6,0.057820529,213.343593,,1.72870791,-66.83643477,520,6.32E-05
mp-4474,216,4.693120535,3.82219844,V4Ga1S8,0,230.2603201,,5.16613601,-84.32486122,520,5.1061473
mp-4478,198,7.845918766,6.717835903,Ca4Si4Pt4,0,260.2818868,,5.12277159,-65.6899837,520,5.80E-06
mp-4482,148,7.349793781,4.706503947,Na2Sb2O6,0,136.009884,,2.22231048,-57.06235188,520,0.00014015
mp-4483,166,-2.393500081,6.446553617,Ag1As1Se2,0.037964097,87.76192021,,4.03576431,-14.77315829,520,9.00E-07
mp-4492,225,0.306295442,7.465707939,Mn1Co2Si1,0,44.68237742,,7.79688292,-30.54645977,520,5.000311
mp-4495,129,15.613395,3.134639843,K2Li2Te2,0,183.9668038,,1.43382767,-18.7932363,520,0
mp-4497,36,3.834751588,2.734179949,Si4N4O2,0,121.6884874,,3.90257391,-81.3159856,520,1.20E-06
mp-4499,62,-1.903275483,2.450316572,Mg4Al4Si4,0.036717409,215.1564745,,6.73856995,-43.58659297,520,5.93E-06
mp-4500,62,2.26353696,6.893887008,Zr4Nb4P4,0,207.2495967,,6.92334339,-109.2133609,520,3.88E-06
mp-4505,221,6.269944303,5.72623677,La3Al1N1,0,132.728783,,7.64143256,-30.69992355,520,0.0001858
mp-4511,164,0.87715914,5.70013508,La2S1O2,0,99.59349114,,5.61962413,-39.81955207,520,0.0001423
mp-4515,161,26.30943204,5.39048663,Ag6Sb2S6,0.002280508,333.654796,,3.3202392,-51.90706795,520,0.00010265
mp-4525,140,2.135512968,6.249956842,Sr2Ru2O6,0.010646024,125.7704673,,4.58810154,-69.25927512,520,0.0016697
mp-4527,148,5.108129666,3.282949016,Li8Sn1O6,0,136.6864879,,1.36872277,-76.98531125,520,0.0001102
mp-4531,167,-72.61960542,2.124228686,Na2N2O6,0,132.8830248,,-0.54006516,-58.50026703,520,0
mp-4533,36,10.95660378,2.540293301,Na4Si2O6,0,159.5806066,,1.11926316,-74.09183516,520,0
mp-4534,14,0.364014392,2.236321364,Na4C4O8,0.008322058,198.9962697,,0.05711802,-106.3599112,520,4.80E-05
mp-4536,225,1.248165723,7.617876221,Sc1Ni2Sn1,0,61.26366287,,8.39306185,-24.11794325,520,0.0007251
mp-4538,194,6.685859326,7.082427592,Ta2Sn2S4,0,170.5867005,,6.30695903,-55.08882842,520,0.0005197
mp-4551,221,4.052036407,7.344257448,Sr1Hf1O3,0.032925441,71.01996799,,2.34951514,-43.3293164,520,1.40E-06
mp-4555,162,5.487597005,4.395443207,Ca1As2O6,0,108.0158052,,2.13432843,-56.93972718,520,0
mp-4559,160,-3.130167841,4.125029787,Ba1C1O3,0.021844594,79.43796357,,0.84381218,-37.22348532,520,2.00E-05
mp-4563,221,11.30174816,7.729422763,Ti3Tl1C1,0.009779503,77.33899025,,7.54730775,-37.48145689,520,0.0037784
mp-4573,166,12.75327742,6.96163671,Tl1Sb1Te2,0.597357753,138.6661335,,5.31305954,-13.6981646,520,8.30E-06
mp-4578,11,11.62905519,3.444715964,Sr4Ge2S8,0,362.6395679,,2.25687226,-68.66097264,520,7.21E-05
mp-4579,129,3.486473318,6.843449213,La2Si2Ru2,0,130.0881155,,8.12770617,-44.0766276,520,3.68E-05
mp-4583,225,0.939348375,9.276654919,Nb1Co2Sn1,0.12741997,58.97804838,,8.19810693,-28.78051111,520,1.7576225
mp-4584,176,17.83854269,7.461707761,Tl6B2O6,0,299.0774644,,3.06438163,-76.16598258,520,1.95E-06
mp-4590,227,-0.173944093,5.002453258,Mg2Ga4O8,0.006272717,151.1999901,,2.17384346,-84.82130597,520,1.30E-06
mp-4593,221,-2.175381067,6.135566686,Mn3Al1C1,0,55.15846495,,7.03840317,-41.38700001,520,3.9915696
mp-4595,225,-0.0879274,7.112627885,V1Fe2Si1,0,44.52545939,,8.70353706,-33.33730747,520,0.8220732
mp-4608,148,18.29256625,2.701252674,K1P1F6,0,113.1485917,,-2.52971701,-39.92786457,520,0.0004893
mp-4609,141,2.359271443,6.817061278,Hf2Si2O8,0,131.8155074,,3.18132863,-108.713876,520,1.91E-05
mp-4612,225,0.576070376,7.9266071,Ti1Co2Ge1,0,49.9366646,,6.75363233,-28.72579874,520,0.0030753
mp-4613,194,23.77248408,7.123122135,Zr4Sn2C2,0,146.011494,,6.7555106,-66.93861889,520,0.00188485
mp-4624,141,3.250796367,7.788022362,Ta2B2O8,0,109.0632769,,3.52766295,-108.90039,520,8.50E-07
mp-4627,29,0.303293263,6.325300033,Co4As4S4,0,174.2312906,,6.57716341,-68.86561966,520,1.53E-06
mp-4628,129,3.332760401,5.80191162,Zr2Si2Se2,0,113.4916444,,6.55630934,-41.39066488,520,2.14E-05
mp-4632,166,-37.69103017,4.358853504,Sr3P2O8,0,172.4987086,,2.29997094,-93.13159672,520,2.80E-06
mp-4636,166,0.989904929,4.470824154,Sc1Cu1O2,0.000307107,52.18431981,,3.34462645,-29.84362471,520,0.0001385
mp-4638,164,7.122078834,7.254864199,Tl1Cr1Te2,0,117.0935172,,5.62472181,-19.30631729,520,3.0667999
mp-4651,140,4.171932148,4.972061245,Sr2Ti2O6,0,122.5585619,,3.2067982,-80.25735789,520,2.36E-05
mp-4652,225,4.345679159,11.77378132,Mn1Rh2Pb1,0.028236656,65.99813918,,7.76760909,-28.01457938,520,4.8374456
mp-4661,14,3.902904803,3.753753108,Sc4O4F4,0,141.4757568,,1.75151335,-97.68606231,520,1.63E-05
mp-4662,14,-11.10506982,3.458739598,Sc4O4F4,0.047875494,153.5429444,,1.21119363,-97.11155638,520,9.80E-06
mp-4664,225,1.740454445,9.78888356,Mn1Ge1Rh2,0,56.55451118,,6.79612841,-30.25229419,520,4.7548673
mp-4675,127,1.730154556,6.807692075,Na2Ta2O6,0.004639148,122.9048872,,1.85954926,-82.56689644,520,1.50E-07
mp-4678,194,19.13854576,5.580414442,Zr4Al2N2,0.022928426,132.9738502,,5.8020447,-66.96575652,520,0.0002056
mp-4690,121,9.451932338,3.678330583,K3Ta1O8,0.015771564,192.4201184,,0.40796863,-72.09443303,520,6.90E-06
mp-4697,227,12.01978629,5.40541997,Zn2Cr4Se8,0,298.1311206,,3.25157564,-77.21629948,520,5.9999204
mp-4701,2,6.158510196,4.329061502,Cu1Sn1F6,0,113.6340392,,,-36.1177397,520,1.0000002
mp-4747,55,6.543348814,4.621998709,Ca4Sn2O8,0,188.8772791,,3.3830868,-90.52633542,520,5.00E-08
mp-4771,225,-5.813687797,6.14375424,Ti1Al1Cu2,0,54.58065785,,7.7129279,-21.06671623,520,2.61E-05
mp-4782,148,7.568670202,3.076949729,Ca1Sn1F6,0.001409521,147.2104696,,-3.20940442,-41.91793388,520,9.25E-05
mp-4798,194,0.779525898,3.27298547,Sc2Al6C6,0,164.3120342,,7.45143516,-95.36243858,520,1.86E-05
mp-4813,225,0.685830114,7.312636593,Nb1Al1Ni2,0.013019246,53.87987335,,7.60604052,-27.12713078,520,0.0004403
mp-4820,141,5.541360603,4.479508977,Zr2Si2O8,0,135.9026614,,2.87917939,-104.7336389,520,4.65E-06
mp-4823,164,2.280296758,3.145072509,Na2Pd1C2,0.043862326,93.14693227,,0.80380601,-26.09811146,520,2.50E-06
mp-4824,129,5.287154556,3.454651077,Na2Zn2P2,0,114.7570299,,3.26101569,-18.43410724,520,1.92E-05
mp-4826,123,-4.402662846,4.672732884,Ca1Cu1O2,0.019509315,48.19598288,,4.18926512,-23.1121462,520,4.85E-05
mp-4828,225,0.949434411,11.15925174,Hf1Ni2Sn1,0.047299325,61.69209037,,8.70769891,-27.48761955,520,2.04E-05
mp-4835,194,-0.12910783,5.948576935,La2Si2Cu2,0,128.7083089,,7.66210818,-32.61440328,520,2.75E-05
mp-4841,14,1.368570339,5.324086739,La4Cu4S8,0,332.5783068,,6.7203139,-92.69143784,520,5.65E-06
mp-4842,227,9.068791022,3.204054845,Al4Zn2S8,0,256.6764626,,4.19518813,-64.78325275,520,9.01E-05
mp-4846,216,-1.020355043,8.146910733,Mn1Sb1Rh1,0.065212174,56.99001958,,6.56582775,-21.44680693,520,3.3832349
mp-4864,62,7.915847678,3.707256203,Ca4Mg4Sn4,0,328.0410717,,4.79042068,-37.13210771,520,8.25E-07
mp-4878,129,5.228692374,6.867660347,Zr2Ge2Se2,0,117.4253564,,5.61799543,-39.52677646,520,1.00E-07
mp-4888,129,9.469085861,3.788116397,Nb2P2O10,0.022647758,178.7410513,,0.9578498,-114.327171,520,7.00E-07
mp-4893,194,18.11990882,11.55374018,Hf4Sn2C2,0,140.1876863,,7.3981131,-72.47720373,520,5.36E-05
mp-4897,225,2.95002136,8.715680378,Sc1Sn1Pd2,0,71.73309926,,7.08166878,-24.21817786,520,6.90E-05
mp-4901,127,-0.564083332,5.035791717,Y4Mg2Cu4,0,217.1114015,,4.12548823,-47.91204762,520,2.13E-05
mp-4913,225,2.247541385,7.334934082,Li1Ga2Rh1,0,56.43676194,,4.59977078,-17.53456945,520,3.90E-06
mp-4938,191,0.251006077,6.554708071,Sc1Co3B2,0,61.6561151,,5.99188553,-44.27570549,520,6.00E-07
mp-4950,221,1.398266609,2.511883165,K1Ca1F3,0.023815076,90.01935718,,-2.56636395,-25.96956314,520,2.00E-07
mp-4952,127,-3.182821589,6.142406837,La4Mg2Ni4,0,226.8168474,,7.26519821,-49.22103524,520,3.25E-05
mp-4955,225,-0.343873361,6.818545554,Al1V1Co2,0,47.68113482,,7.19824801,-28.71296296,520,2.0057516
mp-4962,31,0.459503524,6.836957369,Co2Sb2S2,0.010179868,103.3481035,,8.07613076,-32.82918613,520,1.40E-06
mp-4964,216,3.558317453,9.264815354,Y1Sb1Pt1,0,72.72281644,,6.26802517,-20.30587022,520,2.60E-06
mp-4972,225,1.323022566,9.851874497,Lu1In1Cu2,0,70.26485503,,6.49157378,-16.72063036,520,1.30E-06
mp-4978,194,21.53777571,4.26458245,Ti4Al2N2,0,106.4735493,,7.37604875,-65.11214296,520,0.0001281
mp-4990,225,1.916097423,10.04679377,Mn1Sn1Rh2,0,62.71717851,,8.21719885,-29.62795629,520,4.7934735
mp-4992,194,-0.007911658,4.839725691,Sc2Cr2C4,0.000211085,83.01341285,,7.320143,-71.60188873,520,0.0016045
mp-4997,129,4.132538943,6.003316502,Zr2Ge2S2,0,108.3893389,,6.34263287,-41.41543671,520,8.00E-07
mp-5012,36,4.397914493,2.437928041,Li4Si2O6,0,122.5561662,,1.22570489,-78.6408015,520,0
mp-5014,62,9.690414707,6.126456313,Cu4Ag4S4,0.024273579,220.6072406,,4.18307846,-45.52957669,520,1.75E-05
mp-5019,191,-33.91459109,7.26990452,Y1Co3B2,0,65.62925576,,5.73070288,-44.03891153,520,2.20E-06
mp-5020,160,-17.94023906,5.696969318,Ba1Ti1O3,0,67.97030672,,2.70911738,-40.0559795,520,5.16E-05
mp-5025,194,7.1076709,6.013909025,Zr4C2S2,0,125.0938269,,6.70597096,-71.62900536,520,3.29E-05
mp-5031,129,1.809447881,9.622557286,Ta2Si2As2,0,98.00270674,,7.97678717,-46.93878317,520,1.00E-06
mp-5033,225,3.31058954,5.634978095,Tl2Si1F6,0,162.3245898,,-0.54720265,-45.31470721,520,0.0001686
mp-5038,15,18.69237062,3.343296044,Cs2Ga2S4,0,264.9857015,,0.61220665,-32.80369724,520,0.0002124
mp-5042,129,2.075275818,5.469105942,Y2Ti2Ge2,0,127.1645554,,4.31395281,-42.22855146,520,0.0052518
mp-5046,82,4.21355635,2.370305818,Be1S1O4,0,73.61108271,,-0.40936379,-38.71844379,520,2.00E-07
mp-5076,140,0.796500891,5.234167005,Sr2Zr2O6,0.01258701,143.9313376,,1.89603848,-82.53615983,520,0
mp-5077,225,1.736710253,3.281383113,Na1Li2Sb1,0,80.27537072,,3.21526416,-11.56209974,520,3.26E-05
mp-5096,74,29.73804544,4.104358633,Ca2Si2O6,0.24170761,93.9932667,,6.22474181,-72.48530055,520,0
mp-5104,88,7.120946567,3.750847729,Ca2Zn2F8,0.004434444,160.6866844,,-1.65394792,-59.03327861,520,2.65E-06
mp-5124,225,0.716849432,8.806979006,Mn1Ni2Sb1,0.066613427,55.44913481,,9.27574032,-25.31844349,520,3.9748159
mp-5131,72,0.705419803,2.598730219,K4Co2S4,0.050994768,257.2023401,,2.53356753,-42.94744067,520,0.00012925
mp-5132,141,4.555523604,4.126028394,Y2P2O8,0,148.0044536,,2.15840875,-99.6458006,520,1.65E-06
mp-5137,194,-0.207285525,6.490311077,Zr4Sb2P2,0,171.5117795,,6.59752194,-62.33735781,520,0.00022505
mp-5145,161,30.11957908,5.979230199,Ag6As2Se6,0.012913448,352.9273054,,2.40395108,-48.58883667,520,7.15E-05
mp-5146,227,6.195715542,6.876168206,Zn2Rh4O8,0,161.9046815,,3.80358206,-84.23174777,520,1.81E-05
mp-5149,225,1.023237086,7.408917181,Nb1Al1Co2,0,53.28718107,,6.70572616,-29.71817216,520,0.0093759
mp-5159,225,3.922826247,7.064716168,Li1Ga2Pd1,0,59.42148037,,4.25027243,-15.24300261,520,3.48E-05
mp-5160,85,12.02554335,3.694403598,Ag2B2F10,0,192.0793906,,-2.27086343,-67.41836816,520,0.00019015
mp-5175,166,2.379586962,5.442992862,Na1In1O2,0,51.80430044,,3.66295541,-20.53769507,520,0.0001492
mp-5177,216,0.075275418,11.05053149,Lu1Sn1Au1,0,73.72792898,,5.68789914,-14.24950004,520,9.10E-06
mp-5181,225,2.577569628,11.0817677,Lu1Sn1Pd2,0,75.89865404,,6.48366051,-22.49986275,520,1.05E-05
mp-5186,62,2.889944569,6.732550734,Sc4Ni4Sn4,0.012319531,219.3738053,,7.48045357,-72.03336645,520,1.38E-05
mp-5221,225,-0.319872329,9.779117779,Hf1Al1Co2,0,54.90426291,,6.51336381,-30.21990232,520,0.9955826
mp-5222,216,11.47501671,8.676081699,Re4Te4S4,0,264.7895577,,7.12234897,-83.39849661,520,6.00E-07
mp-5244,194,-0.623077085,5.683965359,Ti4Sb2P2,0,145.1769646,,7.85869625,-57.92142789,520,0.00069565
mp-5245,215,4.868598779,1.854961902,Zn2C4N4,0.257704144,210.2684855,,-4.0666463,-70.74975785,520,0.00019395
mp-5246,38,3.835119131,4.360499913,K1Nb1O3,8.43E-05,68.54760131,,1.125228,-38.27582994,520,1.00E-07
mp-5256,131,4.538486762,2.245296124,K2Cu2C4,0.295003507,187.3546546,,-0.5349939,-45.0953985,520,1.04E-05
mp-5259,127,9.28293057,3.59035216,Rb2Al2F8,0.000277849,174.3098524,,-1.50383953,-64.70391722,520,0.00015525
mp-5280,12,8.294749335,5.452391204,In2Ge2O7,0,148.2901763,,2.31095827,-67.24262894,520,3.50E-06
mp-5282,14,25.4425636,4.488739815,Ag4C4O8,0.218276553,224.7391121,,0.70460843,-100.0017069,520,3.93E-06
mp-5295,88,4.110819067,5.639818828,La2Nb2O8,0,174.1911062,,3.24765145,-106.8562375,520,9.00E-07
mp-5304,221,-0.723629855,6.415374434,La1Al1O3,0.006696191,55.36149801,,7.89587104,-40.04120612,520,0
mp-5305,62,2.400751651,4.751486514,Cu4As4S4,0,238.3894296,,4.99045629,-53.65229298,520,3.84E-05
mp-5318,216,-0.176289248,7.918374701,Mn1Co1Sb1,0.009492971,49.41353344,,7.04897279,-20.7043324,520,2.9918971
mp-5328,12,32.28239669,3.165743906,Cd2P2S6,0,251.3352689,,1.77679549,-41.51525729,520,1.65E-05
mp-5330,164,0.409318716,4.246246012,La2Al2Si4,0,173.6762267,,7.95645307,-43.22389425,520,2.60E-05
mp-5336,148,-28.33539644,5.541219376,Sn1Mo6S8,0.053792102,284.9475268,,6.19423562,-111.7674707,520,1.67E-05
mp-5339,129,8.968669835,3.775756202,Cs2Na2Te2,0,249.3566095,,1.34212439,-16.78658917,520,0.0002644
mp-5347,123,7.123410641,2.777230717,K1Al1F4,0.017515384,84.94739424,,-1.68478908,-32.46602156,520,3.76E-05
mp-5348,167,3.519241849,2.898972816,Mg2C2O6,0,96.59043493,,2.27228135,-71.68118587,520,4.50E-07
mp-5350,82,6.25791709,3.653628682,Zn1Ga2S4,0,151.3975586,,1.93203334,-28.97116957,520,3.96E-05
mp-5377,13,5.426705181,7.289826524,Y2Ta2O8,0,152.0950232,,2.20461857,-115.3356197,520,3.00E-07
mp-5394,129,1.595255148,5.469896971,La2S2F2,0,115.3406479,,6.1862395,-40.56110082,520,0.0004414
mp-5407,225,-0.336498442,6.450356982,Ti1Al1Co2,0,49.61131042,,7.23354211,-28.31748041,520,0.9965171
mp-5408,218,14.89191525,6.301187011,Ag6As2O8,0.000322017,243.7759189,,1.62596814,-75.86816025,520,9.50E-07
mp-5419,225,2.669267418,9.902985368,Li1Ga2Ir1,0,56.77733938,,5.28662312,-18.80932333,520,2.60E-06
mp-5425,131,7.363411432,2.782775212,Rb2Cu2C4,0.303495898,206.5073051,,-0.4758587,-44.83851907,520,3.79E-05
mp-5427,12,3.134845417,3.049157425,Mg2P2O7,0.00614196,121.2001978,,2.60377427,-76.61337162,520,0
mp-5431,11,8.702411681,5.292970269,Ba2Te2O6,0,196.3451464,,2.29629513,-59.23418818,520,2.85E-06
mp-5443,194,19.18386965,8.127474879,Nb4Sn2C2,0,129.3430433,,7.79429081,-70.18102495,520,0.00013075
mp-5461,121,10.46737408,4.390006694,Rb3Ta1O8,0.004400975,213.8447539,,0.44233184,-71.55894981,520,0.0001238
mp-5468,71,3.823875052,2.681224602,Na3Al1F6,0.059665805,130.0210611,,-1.55059595,-49.75878587,520,8.40E-06
mp-5470,12,39.56836772,3.111529087,Ag2P2S6,0.00984498,250.8657578,,1.97191676,-42.88515475,520,2.46E-05
mp-5473,62,-1.612296805,2.228699048,Ca4Mg4Si4,0,275.582393,,4.4200147,-41.39169544,520,7.75E-07
mp-5475,166,-4.230383703,7.914572562,Na1Ta1N2,0,48.66513886,,4.06242773,-33.46184205,520,0
mp-5479,123,5.953775334,3.545332146,Rb1Al1F4,0.001001211,88.26165355,,-1.54350397,-32.34761844,520,0.0001282
mp-5491,225,1.427776283,12.03582487,Mn1Al1Au2,0,65.65167155,,6.13004497,-20.43126075,520,0.3857926
mp-5498,164,-12.40283138,5.134899261,Ca1Mn2As2,0.079712807,96.94934192,,4.41492167,-31.98910399,520,0.0007924
mp-5513,217,14.23952104,5.821252071,Tl3V1S4,0,226.0218965,,2.30542288,-37.57485965,520,7.70E-06
mp-5528,166,3.105555252,6.788405305,Ni3Sn2S2,0,116.8350383,,8.15978112,-36.25878556,520,2.20E-06
mp-5529,225,-20.14196432,7.393946657,Mn1Fe2Si1,0,43.7289391,,8.08444217,-32.82011149,520,2.9987321
mp-5538,225,3.251765578,8.839724033,Y1Sn1Pd2,0,78.98248304,,6.35836348,-24.32629739,520,5.62E-05
mp-5541,129,0.256254514,5.727371853,Zr2V2Si2,0,98.72187081,,6.26975431,-50.64282565,520,1.80E-06
mp-5549,216,4.458389319,8.13688597,Mg1Sn1Au1,0,69.38190731,,5.48584676,-10.20697208,520,0.0003257
mp-5558,88,10.38139037,5.044140252,Na2Re2O8,0,179.8720468,,-0.81255348,-88.85701205,520,0
mp-5566,221,7.199125132,3.936113256,K1Cu1F3,0.005346935,67.34756365,,0.79904014,-21.34493352,520,0.0033169