material_id,spacegroup.number,delta_volume,density,full_formula,e_above_hull,structure.lattice.volume,band_gap.optimize_structure_gap,efermi,final_energy,encut,total_magnetization
mp-20864,225,-0.157772068,8.6772825,V1Ni2Sn1,0.113038367,54.92944399,,9.36074719,-25.10398248,520,0.8079529
mp-20865,186,5.561328268,8.684253662,Y2Cu2Pb2,0,137.539957,,6.1666257,-30.98386485,520,1.05E-06
mp-20866,198,4.588958583,9.755532176,Ge4Rh4,0.039942912,119.5219905,,,-51.97320508,520,0
mp-20868,194,-1.256456692,13.27909055,Fe8W4,0,147.823106,,6.57459163,-119.8243864,520,0.000309375
mp-20878,57,15.22520384,8.739853172,Pb4O4,0.019215023,169.6281666,,3.91825022,-43.49099362,520,4.49E-05
mp-20879,194,19.99190329,8.561136281,Ca2Hg2Pb2,0.098752167,173.7391567,,4.55730408,-14.09257074,520,1.63E-05
mp-20881,129,-16.84094292,7.07640266,La2Ni2B2N2,0,104.3839407,,9.3688313,-59.08193626,520,0.0001652
mp-20883,194,-19.83089644,8.459294941,Fe6Sn2,0.034482517,112.3783958,,7.3352858,-58.50300461,520,0.209146
mp-20885,221,-48.45154952,5.968167522,Fe4P1,0.697554187,70.76952016,,4.88998176,-37.19873193,520,9.4849089
mp-20889,216,6.360891319,11.81284758,Hf1Sn1Pt1,0.493046085,69.20065592,,5.85937099,-20.84943442,520,9.42E-05
mp-20892,62,-0.388889011,7.00455465,Zr4Fe4P4,0,168.8312659,,7.44595444,-102.3377786,520,0.000783175
mp-20893,152,-6.543303857,4.531571409,Ge3O6,1.561215041,115.0308338,,2.37279477,-45.47883692,520,3.33E-08
mp-20900,59,4.787024181,8.716778553,Cu6Sb2,0.078051624,119.0231166,,8.63825642,-32.22686318,520,7.55E-06
mp-20901,205,-2.603663956,6.879253386,Ni4Se8,0.008835434,209.1477008,,6.32230222,-53.79971863,520,0.000143975
mp-20902,163,60.34949729,4.616860403,In2Ag2P4Se12,0,545.5405953,,2.56213691,-79.17119303,520,2.07E-05
mp-20905,205,4.330192151,9.297221141,Os4S8,0,181.7208406,,7.72933691,-82.25621106,520,2.00E-07
mp-20907,127,5.299880514,8.337694334,La4In2Rh4,0.026195558,238.3711476,,7.98184868,-61.96921845,520,7.00E-06
mp-20909,221,-0.948201428,6.745574876,La3In1,0,130.8463185,,8.17082291,-18.74110713,520,0.0402606
mp-20911,123,-1.56793849,8.691346742,La1In5Ir1,0,172.9468045,,8.15035613,-30.36080357,520,0.0004077
mp-20930,166,-14.68083948,6.107408267,In1Cu1O2,0.005818067,57.19539724,,5.09216835,-21.30191827,520,0
mp-20932,62,1.924833998,7.729280215,Nb4Ni4P4,0,156.8945546,,9.12172417,-95.24393317,520,1.67E-05
mp-20935,189,6.792765289,11.33913735,Zr3Sn3Ir3,0.020340256,176.6767828,,8.26725811,-70.73733403,520,0.000147767
mp-20942,123,5.366805233,7.190639578,Ba2Tl1Cu1O5,0.063851954,143.7728706,,2.54916987,-48.50828191,520,0.6193914
mp-20943,221,14.92897034,8.671809746,Te1Pb1,0.21792676,64.1098556,,6.33015062,-7.23153974,520,3.09E-05
mp-20944,55,10.6605687,6.524207715,Sr4Pb2O8,0,227.2542801,,2.3836208,-82.79143805,520,0
mp-20949,62,-4.204069068,6.560972004,Mn4Si4Ni4,0,143.4705222,,8.50240687,-87.34887557,520,2.7963061
mp-20952,216,1.602555152,7.238842282,Ti1Ni1Sb1,0,52.3750792,,8.84395366,-19.27927581,520,0.0391777
mp-20970,129,-5.556572272,4.514976878,Na2Mn2Sb2,0.083052843,146.8842124,,3.78756618,-30.01421412,520,0.14591815
mp-20971,221,8.287868074,17.39227877,Sn1Pt3,0,67.21122626,,8.85597172,-23.72108818,520,3.70E-06
mp-20983,194,13.00323769,7.043102676,V4In2C2,0.012082877,107.8458527,,8.16724292,-63.02667529,520,6.01E-05
mp-20985,194,8.913129249,8.444573727,Ta2Pb2S4,0.001540581,177.8716371,,5.95497007,-54.62671792,520,2.61E-05
mp-20987,194,9.824124846,6.383477806,Y4Zn4Sn4,0,284.0886652,,5.33652741,-54.17252473,520,2.35E-06
mp-20991,140,7.170222449,7.904416117,Ba2Pb2O6,0.002888161,164.9213324,,3.0260749,-57.87358672,520,4.64E-05
mp-20994,136,-2.452304411,9.807658106,Ta2O4,0.070797627,72.10819785,,5.5223264,-59.00695177,520,0.00048535
mp-20997,221,1.67085293,9.242253143,In1Ni1,0.109530098,31.17448193,,9.61570578,-8.68533377,520,0.0004602
mp-20998,187,5.260725182,5.346549141,Li3Ca3Pb3,0,236.8671248,,3.54744759,-27.14164357,520,0.000253567
mp-20999,221,0.776835493,6.681348438,La3In1N1,0,135.5852519,,8.1390711,-30.29104273,520,0.0004152
mp-21008,221,-1.866833845,9.008467998,Ni3Ge1,0,45.84681904,,7.70486109,-23.1177324,520,0.0355248
mp-21017,221,2.744634766,6.774897435,Y3Pb1C1,0,119.1018517,,5.28792374,-35.17695751,520,0.0003469
mp-21019,227,0.91789285,3.81545329,Cr4Fe2S8,0.096157084,250.7679228,,4.64472675,-96.19043538,520,0.41918755
mp-21021,148,-36.23941846,6.516933439,Mo6Se8,0.063350381,307.6296563,,4.34485624,-100.2434794,520,0.00137555
mp-21023,194,0.519243132,5.90654193,Ti6Sn2C4,0,160.9964457,,8.21644218,-101.6674504,520,1.85E-05
mp-21026,216,-0.512899926,8.268691774,Li2In1Pt1,0,65.02310006,,4.9149591,-14.91359294,520,0.0003813
mp-21029,216,0.900457822,5.8930162,Li2In1Pd1,0,66.2523105,,4.24143099,-13.71462221,520,1.01E-05
mp-21030,194,-41.3641869,6.051626335,Ti6Sn2,0.004156055,143.9539165,,7.60130959,-57.77598148,520,0.00018775
mp-21031,221,20.35732452,11.25448551,Pd3Pb1C1,0.430417206,79.44846689,,6.33272413,-27.52334172,520,1.29E-05
mp-21035,221,7.545635415,6.182345388,Sc3Pb1C1,0,95.10323822,,6.34889738,-35.3227214,520,5.86E-05
mp-21039,221,13.19470218,8.145994017,Pb1S1,0.2564027,48.77352875,,6.08278986,-8.40233425,520,3.17E-05
mp-21040,194,1.293578487,7.824575017,Zr4Fe6Ge2,0,179.3789411,,,-99.60698007,520,4.06010315
mp-21043,221,5.010630239,5.052776788,Rb1Pb1F3,0.033176766,114.9128692,,1.1685156,-22.77113746,520,0.0002672
mp-21048,62,-4.756440054,5.669873427,Cr4P4,0,97.19772179,,9.22735384,-64.56562015,520,0.00014825
mp-21058,221,-30.20646916,3.69081142,Mn3In1C1,2.409513745,131.2135078,,1.95559567,-27.75157616,520,11.8233872
mp-21065,205,48.80419383,3.158508887,Si4P8,0.012967251,189.3340897,,8.57447841,-66.3438394,520,3.35E-06
mp-21066,62,-29.65507576,11.33873638,Ta4Mn4P4,0,156.3246251,,8.65701448,-114.926847,520,0.00013715
mp-21067,225,1.310099188,7.198631946,Sc1In1Cu2,0,66.17257969,,7.11551915,-18.52578161,520,8.58E-05
mp-21068,194,5.658581098,5.394319887,Ca2In4,0,166.0526761,,6.03788567,-17.57732092,520,0.000196
mp-21069,62,6.376741203,6.660669845,Y4Si4Ru4,0,217.4552369,,6.29838861,-94.5766863,520,5.93E-06
mp-21075,225,0.331375628,12.57416101,Hf1C1,0,25.1574518,,5.95078744,-21.06560141,520,2.96E-05
mp-21090,194,-4.049454774,8.068771203,Mn2Ni2Ge2,0.032527676,76.66867697,,6.72128726,-40.47949756,520,2.9925203
mp-21092,194,-46.59024958,9.135215808,In2Ni4,0.106886011,84.41730196,,8.68373268,-28.72961997,520,1.45E-06
mp-21097,4,27.60946376,4.301496524,K2La2Ge2Se8,0,437.3679766,,1.95077141,-66.02051539,520,6.30E-06
mp-21099,166,5.468846957,4.131325347,K2Pb1S2O8,0,191.9344338,,1.3786576,-75.8377632,520,6.30E-06
mp-21112,227,4.841596677,4.515733188,In4Fe2S8,0.090147976,304.284179,,,-67.19451859,520,4.0000031
mp-21128,221,89.41331892,2.686214836,Ca3Pb1N1,1.487152476,211.0686028,,1.53639543,-13.95207099,520,1.1206151
mp-21137,55,8.113265528,5.824536436,Ca4Pb2O8,0,200.3374435,,3.08334906,-85.23844585,520,0
mp-21139,65,27.96528558,4.206136313,Mn2Sn1S4,0.09208452,140.8791393,,,-41.95846174,520,9.5773582
mp-21141,51,-0.580662141,7.982389202,Fe4Cu2Ge4,0.017217047,133.3508847,,5.61281596,-61.33554375,520,0.07467395
mp-21162,221,5.216049934,9.133693216,Sr1Pb3,0,128.938806,,5.88407738,-14.26967305,520,0.0015956
mp-21164,198,11.9379037,7.875498884,Sr4Ge4Pt4,0,299.6953429,,3.66792087,-60.28618319,520,5.70E-06
mp-21166,62,7.208129487,5.087232426,Sr4Ca4Pb4,0,437.2603072,,3.5128594,-36.67161279,520,0.000372275
mp-21170,194,26.56765179,6.847599191,K4Pb8,0,439.8923539,,3.92720499,-36.33527317,520,8.73E-06
mp-21171,225,1.262998766,8.58160604,Mn1Ga1Co2,0,46.92900982,,5.45443606,-27.31347755,520,4.1091193
mp-21173,227,-4.495443739,4.636055236,In4Co2S8,0.135154454,298.5991823,,5.04616776,-63.67081773,520,0.0098503
mp-21175,225,3.637956709,11.4595814,Ta1Ga1Ni2,0.004354972,53.33302544,,7.01731865,-27.8553313,520,0.0009972
mp-21183,66,99.95494975,5.244643911,Ba2In4Te8,0,555.5746161,,3.1464545,-50.88662848,520,8.50E-07
mp-21185,224,23.49504421,5.388186327,Cd6P4,0.214143536,246.0400602,,2.38483455,-25.74290387,520,3.62E-05
mp-21186,221,50.70130971,4.189327179,Mn3Rh1N1,2.114989235,111.6689048,,1.17028168,-33.81444057,520,14.7138731
mp-21190,11,6.271900273,6.194434201,Pb2S2O6,0.058966222,154.0130197,,3.92932844,-58.37959952,520,3.65E-06
mp-21199,217,9.689901391,8.215484181,Na3Ge4Pt4,0,230.393097,,3.56775599,-52.21961683,520,0.0001971
mp-21201,191,2.652751618,8.286157453,La1Ga3Pd2,0,112.4067918,,5.90765932,-29.00211942,520,0.0006599
mp-21204,194,4.104489397,6.469449128,Zr2Ni2P2,0.501332371,92.8600969,,7.43689121,-43.07535389,520,3.98E-05
mp-21209,2,10.12943406,4.798635927,Cu3As2O8,0.003668329,162.1134346,,2.77316548,-72.48902369,520,1.6196085
mp-21210,63,13.18084636,6.792776295,In2Sb2,0.149810035,115.66611,,6.6664797,-13.6144283,520,2.30E-06
mp-21211,225,6.939254663,8.933952925,In1Fe1Co2,0.110361031,53.62848006,,7.23451501,-25.12454015,520,5.134237
mp-21214,221,15.61542137,8.767862814,Pb1Se1,0.23928919,54.19563031,,5.34010192,-7.85233768,520,1.26E-05
mp-21215,221,1.923940779,10.13388695,In1Pd1,0.002957404,36.25206578,,8.0575903,-8.91022213,520,2.29E-05
mp-21218,11,7.465457495,11.23960427,La2Ge4Pt4,0.010640601,199.2579519,,,-62.28498605,520,0
mp-21220,51,12.03797814,7.006611458,Ca2In8Rh2,0,285.4643149,,6.92244094,-45.50542585,520,3.86E-05
mp-21228,129,3.21453282,5.54613699,Sr2Cu2Se2F2,0.000954914,149.1779947,,4.08229608,-38.6141998,520,0.00039905
mp-21231,147,13.38998084,2.950574643,Fe1Sn2C6N6,0.121407106,252.898341,,0.74730697,-118.3511478,520,1.50E-06
mp-21233,221,0.610721228,6.099079839,Ti3In1N1,0.00839724,74.17078023,,8.16029863,-39.06737178,520,0.0053273
mp-21236,198,11.80118167,8.304912255,Ba4P4Pt4,0,290.6302031,,5.08451658,-66.56643726,520,7.25E-06
mp-21239,147,16.54293798,4.048077531,Fe1Pb2C6N6,0.130181721,256.9312528,,0.87231693,-118.2175479,520,9.00E-07
mp-21243,200,67.56865261,4.030213037,Tl1Hg1N3O6,0.87504219,223.7240942,,1.60112439,-51.85377307,520,3.9997279
mp-21246,62,30.28485858,5.78707582,Ba8Pb4,0,553.0512497,,3.04198078,-36.71976278,520,2.25E-05
mp-21248,62,4.010600407,11.48774651,Nb4Si4Ir4,0,181.0957693,,8.55568261,-107.7551026,520,1.56E-05
mp-21255,198,5.05881146,8.376046795,Fe4Ge4,0.024703521,101.8878541,,6.00688227,-53.11150151,520,0.001227225
mp-21264,58,6.887190696,13.06579077,Os2N4,0.272632182,55.47336433,,7.60996484,-52.61366113,520,4.78E-05
mp-21268,205,9.311757191,5.187400571,Si4As8,0.126741067,227.827058,,6.52199659,-58.35799216,520,3.75E-07
mp-21280,221,3.5182436,7.852239277,Ba1Pb1O3,0.026377151,83.00860376,,3.09720841,-28.81934841,520,0.0007639
mp-21282,147,5.568564097,2.556272832,Na4S2O6,0.042031493,163.7531686,,1.64992497,-63.40808265,520,5.16E-05
mp-21283,63,16.05906467,6.092228504,Cs4Pb2O6,0.000154938,284.0195362,,1.85179991,-55.03367855,520,2.81E-05
mp-21284,129,6.270200516,4.812277981,Li2Mn2As2,0.130738175,94.40967983,,3.48531105,-33.28369799,520,1.86150615
mp-21288,127,4.860663201,6.709880534,La4In2Ge4,0,266.2398504,,6.95537057,-51.38746067,520,3.72E-05
mp-21289,221,32.89202274,6.697659925,Ti1Zn3,0,60.51779591,,3.63756908,-12.46954413,520,0.0001966
mp-21293,166,0.229120699,4.32535095,Li3In2,0,96.15334159,,4.86262041,-12.70018255,520,6.50E-06
mp-21294,194,2.456510918,5.669658669,Y4In2,0,171.4117443,,4.84506144,-33.68476058,520,0.000395
mp-21296,125,18.64048907,11.96830979,Pt2Pb8,0,284.1168694,,6.77915573,-43.07681901,520,3.85E-06
mp-21297,140,9.954068207,7.586188907,Li2Sn8Ru2,0,255.1602265,,7.7342976,-57.50037822,520,4.43E-05
mp-21299,227,-8.713383759,4.135139755,Cr4Co2S8,0.030690256,233.8613662,,5.30778761,-94.21336081,520,7.205896
mp-21301,225,0.676968641,7.436589094,Sc1In1Ni2,0,61.88807487,,7.65909683,-22.4118945,520,0.0016759
mp-21306,62,1.078299823,5.72822806,Ti4Co4Si4,0,156.406456,,7.58124781,-91.45695588,520,2.98E-05
mp-21309,225,4.473723539,8.350771162,Mg1Te1Pb2O6,0.024761903,131.6976971,,5.7203585,-56.34108642,520,3.20E-06
mp-21313,221,-3.533350576,7.374984931,Mn3Ga1C1,0,55.51229041,,6.07621534,-40.29419387,520,4.1470364
mp-21316,62,4.125853154,14.82714275,Ta4Si4Ir4,0,179.7492428,,9.03472902,-114.3091081,520,4.25E-06
mp-21321,205,-31.5464949,6.034268291,Mn4Se8,0,234.3012121,,4.90709668,-68.20595194,520,3.114402825
mp-21328,198,7.041488323,10.84084598,Hf4Sn4,0.09195095,182.0936129,,7.12352048,-58.05021025,520,9.08E-06
mp-21336,62,0.733155576,11.64010797,Ta4Fe4P4,0,152.7947898,,8.87605988,-113.0226362,520,5.68E-06
mp-21340,62,6.872847536,14.41980927,Hf4Ge4Pt4,0,205.538299,,6.56623107,-93.44082889,520,4.35E-06
mp-21345,62,3.405917709,6.496551137,La4Ge4,0.013811759,216.2867677,,6.74327793,-44.92902273,520,0.0001343
mp-21347,62,0.333845382,8.916194375,Co4B4Mo4,0,123.4271316,,8.09479262,-103.7665721,520,3.30E-06
mp-21359,62,8.169612346,10.94432219,Sb4Rh8,0,198.8042473,,8.70479136,-79.73784781,520,7.70E-06
mp-21380,194,7.968133559,14.22259557,Pt2Pb2,0.273825787,93.93619947,,6.54712611,-19.40929033,520,6.15E-06
mp-21385,164,-27.68796721,8.415773571,In3Ni2,0.005884422,91.12705709,,8.47355267,-20.57646594,520,0.0002964
mp-21391,225,5.729517003,6.613324165,In1As1,0.19702778,47.64170111,,5.93262826,-7.48096872,520,1.71E-05
mp-21400,164,5.257955288,11.70954423,Ga3Pt2,0.008832789,84.99241876,,5.19084349,-24.20149368,520,0.0003785
mp-21405,12,30.24053845,5.390145613,In4Se4,0.035573856,238.7883053,,3.60934176,-28.78394847,520,1.09E-05
mp-21410,62,-14.19403032,6.097106368,Fe4S4,0.235457596,95.76869958,,8.82531615,-52.57495397,520,1.68E-05
mp-21418,216,-1.150570802,10.16974268,Mn1Sn1Pt1,0.051409142,60.20741871,,6.29587096,-20.24055331,520,3.6931992
mp-21422,131,-0.134469017,5.80814548,Y2Co2C2,0,91.40154736,,4.11080196,-47.44422342,520,0.00720195
mp-21432,221,5.490329831,10.2975527,La1Pb3,0,122.6358398,,7.95882042,-17.80900919,520,0.0005074
mp-21438,189,10.48799146,9.610934538,La3In3Au3,0,233.6052967,,7.69250613,-39.66651092,520,4.21E-05
mp-21440,189,0.634270488,8.084540179,Nb3Cr3Ge3,0.04453772,134.0476166,,5.90567272,-75.50796502,520,0.007054467
mp-21446,166,26.54933548,9.000919535,Ba3Pb9,0,420.0330557,,5.41150103,-43.58049556,520,5.07E-06
mp-21449,62,-8.543762398,7.877527243,Nb4Co4P4,0,154.1441489,,8.43030927,-101.0807689,520,0.000149025
mp-21464,62,1.294042946,14.10542947,Co4Re4B4,0.006308845,120.5257742,,8.11450908,-108.2299439,520,8.75E-07
mp-21467,225,0.785769857,8.375452803,Ti1Co2Sn1,0,56.39448575,,8.40516003,-27.59510906,520,0.0043319
mp-21469,225,0.849688732,8.760358004,V1Co2Sn1,0.067304519,54.49944863,,8.46611211,-27.6035383,520,3.0328229
mp-21471,129,-12.72910587,5.211401324,Li2Fe2As2,0,87.75714311,,4.59346845,-32.73617026,520,0.2862789
mp-21476,60,-5.102017802,7.399139137,Fe8N4,0.052904852,112.8370605,,6.55068575,-101.4452624,520,0.0006137
mp-21479,123,-0.089948921,7.820222126,La1In5Rh1,0,173.2476894,,7.89180781,-29.26058463,520,0.000269
mp-21489,36,12.94487881,5.505603342,Rb4Pb2O6,0.002124828,257.0515045,,1.09821562,-55.54266728,520,0.0001006
mp-21495,62,-5.310586322,6.917187447,Cr4Fe4P4,0,133.2955045,,8.93659289,-100.7694413,520,0.927904425
mp-21502,62,19.66842078,10.20692574,B4Rh8,0.073494764,140.9667503,,6.97847095,-87.94620685,520,4.54E-05
mp-21503,189,3.631362344,4.907289733,Y3Mg3In3,0,231.4826482,,5.05042362,-36.17095764,520,2.77E-06
mp-21504,216,8.308512829,5.596544278,V4Ga1Se8,0,268.5708158,,4.20481736,-76.81431277,520,5.0290981
mp-21505,189,12.48623217,8.864150995,Y3Ag3Pb3,0,227.0317873,,5.35887803,-42.69657732,520,4.00E-07
mp-21508,127,10.64533562,8.625367185,Y4Pd4Pb2,0,230.1945104,,5.33069921,-62.33422178,520,5.75E-06
mp-21509,189,1.488832521,5.012263551,La3Mg3Ga3,0,231.5092473,,5.56431432,-33.0744985,520,7.99E-05
mp-21521,36,16.35598173,6.074785836,Cs4Pb2O6,0,284.8350478,,1.77842442,-55.03553781,520,3.35E-05
mp-21554,176,49.80085781,6.824894159,P6Pb10O24F2,0,652.018023,,3.31797732,-274.3985943,520,1.74E-05
mp-21845,221,2.472046347,10.54023034,Fe1Pd3,0,59.09515035,,4.92810647,-24.44218502,520,4.3221106
mp-21847,129,2.203583487,3.681400824,K2Mn2As2,0.053780687,152.4209274,,2.67291202,-31.34510892,520,0.0343865
mp-21848,223,-207.8990479,2.840784347,F8,0,88.84191508,,-4.17080349,-9.20929885,520,0.046386125
mp-21851,62,-0.577575107,10.78182201,Mn4Si4Ir4,0,169.5623133,,7.99440761,-100.2029893,520,0.0012307
mp-21855,215,7.605181086,5.13051918,V1Cu3Se4,0,180.4138741,,2.75538657,-39.24683502,520,0.000225
mp-21859,58,-1.082959916,6.474917001,Cu2As4,0.087064817,109.4503906,,5.35552054,-26.30847786,520,0.0001574
mp-21863,166,13.72395195,8.801393839,Pd3Pb2S2,0.005993949,150.5172323,,,-34.13224202,520,6.68E-05
mp-21865,225,5.854239804,8.638203314,Fe1Cu2Sn1,0.243161301,57.98620403,,8.07588336,-19.7479391,520,0.0320702
mp-21868,123,5.026877612,6.806468572,Ba2Lu1Cu3O6,0.02166517,179.6204334,,,-73.18232157,520,4.20E-06
mp-21873,205,1.728347864,7.146180844,Ni4As8,0.014370821,193.8283809,,6.52611639,-63.23794291,520,1.39E-05
mp-21885,15,6.969274515,8.37258464,Ca4In2Pt4,0,232.1030307,,5.19327005,-46.63268472,520,4.17E-05
mp-21892,40,8.111145703,5.239672417,Al4Pb2O8,0,206.0976167,,2.80583659,-97.00038243,520,1.60E-06
mp-21893,205,-35.99256625,6.869944247,Mn4Te8,0,299.8547371,,6.85505567,-63.25770796,520,3.26533575
mp-21894,140,14.62937927,8.703403956,Li2Sn8Ir2,0,257.1867277,,8.27693536,-57.23119387,520,3.25E-06
mp-21901,51,-2.547587465,8.151389023,Sr2In8Ir2,0,301.1313399,,6.80751634,-47.0933501,520,8.25E-06
mp-21907,129,2.304895659,6.601363567,Nb2Si2As2,0,98.56205577,,7.56551175,-43.93112559,520,3.40E-06
mp-21911,62,4.271027574,9.597400115,P4Ru8,0,161.3330685,,9.41939463,-100.7447499,520,3.97E-05
mp-22003,166,1.552406005,1.798137302,Na1N3,0.000705942,60.03514071,,-0.17626092,-26.72362584,520,0.0002199
mp-22015,216,-20.9573291,2.299682801,Fe1Co2C6N6,0.509355053,238.1511029,,0.15237986,-119.0504463,520,2.5318599
mp-22018,191,-27.88925137,8.544348716,Hf1Mn6Ge6,0,183.4521988,,6.40039459,-96.36970481,520,0.016481
mp-22027,216,1.494976279,9.46577728,Mn1Sn1Au1,0.076583335,65.0152668,,5.51945189,-16.57832229,520,0.004223
mp-22035,63,-13.47718557,3.195791765,K2Fe4S6,0,256.6659169,,3.14273304,-69.01378317,520,0.21945265
mp-22036,62,10.64368621,8.815970199,Zr4Sb4Pd4,0,240.6463722,,7.45569352,-80.39785909,520,7.18E-06
mp-22037,225,0.31754424,7.407525693,Cu6Pb1O8,0.255488445,160.6107691,,5.18412119,-74.07496661,520,0.0003126
mp-22043,200,64.81612891,3.478893832,Tl1Cd1N3O6,1.052187678,217.0894329,,1.6040265,-51.94154462,520,3.9996124
mp-22046,134,2.70765537,2.318186528,B50,0.094016626,387.2011018,,4.02677875,-329.2254984,520,4.42E-07
mp-22048,2,11.31564716,11.24226765,Pt4Pb2O8,0,195.3739998,,,-81.429866,520,0.0001979
mp-22050,127,12.22063534,9.280933087,Hf4In10,0,333.1729837,,7.22956849,-69.16820945,520,2.72E-05
mp-22051,62,7.862044026,10.63700259,Lu4Ge4Ru4,0,217.7274157,,4.92290939,-82.51614133,520,0.0003838
mp-22052,227,11.16403365,4.523611066,Zn2In4S8,0.011215658,310.7758241,,3.79439953,-55.1059678,520,2.20E-06
mp-22060,223,5.323104695,8.583207783,Nb6In2,0.102529608,152.2702936,,6.26768239,-65.85133198,520,2.70E-05
mp-22061,176,-107.0461184,7.063841688,In2Te6Mo6,0,369.2751112,,6.61423646,-92.81926184,520,3.45E-06
mp-22064,189,10.93782303,6.876389457,Cr6As3,0.107469772,129.6145389,,6.75436003,-71.98556375,520,3.9091259
mp-22068,223,4.660416729,10.32250237,Nb6Pb2,0.190811332,156.3356778,,6.51905821,-67.07148199,520,0.4255673
mp-22079,62,5.65747499,9.196488492,As4Rh4,0.003566763,128.435475,,7.24224145,-51.90729023,520,9.18E-06
mp-22084,191,1.173082473,7.676511769,Zr1Mn6Ge6,0,185.3147631,,5.79905467,-95.2415042,520,12.1602745
mp-22087,221,6.100618329,12.35123829,Ta1Ru3C1,0.157388689,66.70645308,,,-49.27928547,520,0
mp-22095,225,2.41536087,10.27793594,Ga2Pt1,0,54.0478291,,4.3989215,-13.87645905,520,3.90E-06
mp-22120,221,3.620453625,9.253273477,Y1Rh3C1,0,73.51038239,,6.33461417,-40.2087511,520,5.19E-05
mp-22130,191,-0.03059724,7.957908071,Ti1Fe6Ge6,0,170.8503242,,,-89.8877507,520,11.3310301
mp-22144,194,14.43281702,12.85304064,Ta4In2C2,0.07006475,126.2807873,,8.05975533,-74.41824041,520,3.15E-06
mp-22150,127,0.545109511,8.002082782,Zr4In2Co4,0,172.2910295,,6.01908321,-71.5342744,520,0.00066505
mp-22151,198,14.47030697,8.365519006,Ba4Ge4Pt4,0,321.6073017,,3.63592998,-61.21864059,520,4.00E-07