material_id,spacegroup.number,delta_volume,density,full_formula,e_above_hull,structure.lattice.volume,band_gap.optimize_structure_gap,efermi,final_energy,encut,total_magnetization
mp-15974,227,1.516878057,3.670394492,Mn2Cr4S8,0,259.8579606,,4.50576529,-99.58113381,520,0.6779184
mp-15985,189,1.884871791,7.70025293,Zr3Cu4Ge2,0,145.159986,,5.63654745,-55.65606679,520,1.07E-05
mp-15986,164,-0.146684269,7.941811691,Hf1Cu2P2,0,76.84608332,,7.49749764,-32.05715929,520,0.0005828
mp-15987,189,0.316117013,10.2518765,Hf3Si2Cu4,0,137.0017902,,6.96252766,-61.61409413,520,1.90E-06
mp-15988,216,1.95607184,5.207162639,Li2Cu1Sb1,0.001925465,63.52009208,,6.05582372,-13.73611048,520,1.81E-05
mp-16031,227,6.534422701,7.164963868,Sn6N8,0.0001581,191.0414259,,7.75884371,-87.67394877,520,3.15E-06
mp-16044,187,7.350592654,9.032211718,Ca1As4Rh6,0,175.9772358,,6.97983046,-71.9819886,520,9.60E-06
mp-16045,187,7.196418167,9.294903519,Sr1As4Rh6,0,179.4971831,,6.85372936,-71.36158952,520,5.04E-05
mp-16052,166,1.05921441,7.038498368,Ba1Cu4As2,0.03734127,127.7175523,,5.49692232,-29.91642267,520,7.80E-06
mp-16096,176,26.68752187,7.657721856,Tl2Te6Mo6,0,379.4802598,,,-92.67284264,520,0
mp-16220,227,19.24347866,1.980888738,Si34,0.339607503,800.479261,,4.09734318,-172.9158056,520,0
mp-16228,227,1.485023718,4.235854331,Y2S4,1.549644872,119.9861863,,,-29.86972347,520,0.3876018
mp-16236,129,7.114994542,4.626412262,K2Ag2Se2,0,162.1817305,,1.49775267,-18.86987506,520,0.0001019
mp-16238,216,2.56227001,5.473004269,Li2Ag1Sb1,0,73.88230921,,4.71729829,-12.61231134,520,0.0001082
mp-16240,59,7.894222854,9.23715274,Ag6Sb2,0.022869953,160.1240829,,,-25.06297377,520,5.00E-08
mp-16245,194,14.42823734,7.56414686,Ca2Sb2Au2,0,157.535015,,,-23.63687761,520,1.50E-07
mp-16246,216,13.54116643,9.587781032,Cd1Sb1Au1,0.000593614,74.6701205,,,-8.67640577,520,1.00E-07
mp-16252,62,7.398190062,4.065394909,Ba4Ca4Ge4,0,408.5305301,,2.4435737,-41.19548271,520,1.10E-06
mp-16253,62,19.48293055,3.413083532,Ba4Ca4Si4,0,399.9023105,,2.98899346,-42.41732312,520,1.08E-06
mp-16254,194,2.160206682,5.410628425,Ba2Cu2P2,0,142.3090145,,,-27.23674554,520,0
mp-16258,189,5.251732578,5.264883358,Ca3Cd3Ge3,0,213.0163964,,,-27.10291634,520,3.33E-08
mp-16263,194,1.865802827,4.447897853,Ca2Zn2Ge2,0,133.0007331,,,-18.97188934,520,0
mp-16264,62,-0.483835414,3.761649646,Li4Ca4Sb4,0,298.0225646,,4.17684932,-43.48633029,520,7.58E-06
mp-16266,194,0.157175306,3.46096683,Ca2Zn2Si2,0,128.1736358,,,-20.0998063,520,0
mp-16268,225,30.47456326,5.528332349,Cd1Ge1P2,0.591948845,74.19067198,,,-14.37094214,520,6.50E-06
mp-16271,225,6.671848693,5.198540397,Li2Cd1Sb1,0.039793611,79.234104,,,-10.47713272,520,1.90E-06
mp-16290,221,4.395108105,7.879498498,Zn1Ni3C1,0.044412166,53.42300411,,6.61963463,-28.11499893,520,0.0004651
mp-16291,12,13.31183746,3.671709968,Na1Zr2Pd1F11,0,235.5511467,,-0.34538712,-90.34305196,520,4.00E-06
mp-16297,221,1.236850979,4.725012554,Sc3Sn1C1,0,93.33731107,,6.34272685,-36.18112019,520,9.56E-05
mp-16304,187,1.708578877,9.034147076,Y1P1Pt1,0,57.89250158,,6.35895762,-22.00365461,520,3.80E-06
mp-16305,189,3.084965501,6.484015657,Sc3P3Ru3,0,135.9874271,,8.02666155,-73.7619374,520,1.53E-06
mp-16307,225,3.850096744,6.39220512,Sr2Mg1Ir1O6,0,126.7077401,,,-64.13859404,520,2.131983
mp-16315,140,6.295670881,17.35278149,Ge2Pt6,0,125.9112668,,,-48.14916998,520,5.00E-08
mp-16318,160,7.730751115,3.646568158,Rb1Ti1S2,0,89.91961625,,,-22.22358439,520,1
mp-16319,194,25.45414947,3.080717191,Rb6Sb2,0,407.6681177,,1.02000273,-16.93371662,520,3.95E-06
mp-16320,225,5.724758008,8.089604853,Mn1Cu2Sb1,0.239924886,62.35845123,,8.37656512,-20.59329342,520,3.8896099
mp-16321,194,-0.407335147,4.809589048,Sr2Cu2P2,0,125.7696583,,,-27.32227447,520,0
mp-16334,221,0.010180139,8.274118966,Fe3Pd1N1,0,57.79124603,,5.57742274,-39.53623604,520,8.2593946
mp-16336,194,-0.699412673,7.211276198,Zr4Fe6Si2,0,174.1155065,,6.03353466,-102.189399,520,0.00139975
mp-16338,216,67.49875044,4.115727134,Ga1Si1Mo4S8,0.374994103,297.7905797,,,-90.79467954,520,4.20E-06
mp-16341,225,2.030672232,7.027355528,Li2Hg1Ge1,0.053749655,67.84354128,,,-9.83064319,520,7.40E-06
mp-16343,216,2.656494923,4.944402375,Li1In1Ge1,0,65.28739054,,,-9.98454334,520,0
mp-16349,225,-0.019935963,7.165160969,Li1Ni2Ge1,0,45.64764462,,,-19.53457644,520,3.00E-07
mp-16356,62,0.780394282,7.085255603,Ti4Ni4Ge4,0,167.9935217,,6.61260135,-81.30800674,520,3.25E-05
mp-16358,225,1.773037083,8.647024135,Zn1Ni2Ge1,0.048852087,49.05284309,,6.67424907,-18.36681581,520,2.13E-05
mp-16364,216,32.11506532,4.342763248,Sn1Te1,0.251506765,94.1813651,,,-7.21990221,520,0
mp-16365,216,24.86244343,4.823287419,Sn1Sb1,0.18737696,82.78789719,,,-7.7624048,520,2.60E-05
mp-16366,225,0.978508512,7.007266246,Cu2Se1,0.126697855,48.82894102,,,-11.64567327,520,0
mp-16421,115,-0.867200019,7.565330819,Zr2Cu1Sb3,0.051722269,134.1705162,,7.13528359,-36.37392694,520,7.00E-07
mp-16481,194,1.324155937,9.08276998,Ti2Al2Au2,0,99.3880939,,6.98976143,-32.80997613,520,0.0058448
mp-16482,225,2.072603122,11.51377546,Ti1Al1Au2,0.007293025,67.6086031,,7.04233341,-19.93555255,520,8.30E-05
mp-16483,191,1.530750621,3.724329326,Ba1Al9Fe2,0,219.2978822,,5.96483322,-56.38514178,520,0.000913
mp-16490,194,10.83010418,7.477868855,Lu4Al6Co2,0,217.5356776,,5.65095207,-60.85439657,520,0.00019225
mp-16491,191,-2.653233666,3.512871066,Sr1Al9Co2,0,211.9215999,,6.39275507,-54.50609793,520,1.53E-05
mp-16494,225,3.268135725,6.546075907,Al1Cr1Cu2,0.159982776,52.27355819,,7.23518719,-21.59343737,520,3.0045946
mp-16495,225,-3.345400244,6.949494968,Al1Cr1Fe2,0.016827034,45.55885845,,7.59762289,-30.95577272,520,1.0064819
mp-16497,225,0.046020631,5.545312664,Sc1Al1Cu2,0,59.59919537,,6.53346888,-19.92277856,520,9.76E-05
mp-16501,225,1.944572096,10.44984841,Hf1Al1Pd2,0,66.47203034,,6.39126436,-27.37624607,520,0.0001064
mp-16506,166,-2.938016988,1.538620446,Li3Al2,0,80.7120438,,,-14.13083973,520,1.00E-07
mp-16514,65,-18.88205211,6.717313396,Al3Ni5,0,92.55561984,,8.93717611,-44.70511867,520,0.0002556
mp-16522,225,3.736877975,5.071369701,Al2Pd1,0.03675003,52.51487799,,6.05698621,-14.52535009,520,1.71E-05
mp-16523,55,-13.85482905,8.614226795,Al6Pd10,0,236.3495975,,6.98343136,-87.89919706,520,9.35E-06
mp-16524,225,1.980129695,7.241821489,Sc1Al1Pd2,0,65.29905151,,6.12951763,-24.23414157,520,1.76E-05
mp-16526,62,6.760420816,15.41686206,Al4Pt8,0.001539951,179.723498,,8.1872083,-73.78083095,520,9.50E-07
mp-16528,63,-13.77484104,5.051142727,Al12Re2,0,228.8699463,,7.66426955,-72.73907855,520,3.65E-06
mp-16529,63,2.467967702,3.92653497,Al12Ru2,0,222.4119094,,8.25004011,-68.14296456,520,1.59E-05
mp-16577,82,4.954698811,4.490269265,Li2Ca1Hf1F8,0,142.1680937,,-1.71338659,-73.98856189,520,1.00E-07
mp-16613,194,3.034193746,9.213030635,Al2Au2O4,0.012279223,92.26276327,,5.79582183,-48.86656875,520,5.40E-06
mp-16648,140,12.2496811,7.502877134,Li2Sn8Rh2,0,258.8059866,,7.790676,-54.89114708,520,1.30E-06
mp-16718,63,1.077032876,3.794004995,Al12Tc2,0.010415058,227.4937517,,7.81938411,-69.45996394,520,3.50E-06
mp-16719,204,0.604067582,3.277389412,Al12Tc1,0,213.7004537,,7.78469542,-57.52253754,520,0.0001963
mp-16726,62,0.736384237,1.089188014,Li4B4,0.08520802,108.2563842,,1.14873622,-35.08639776,520,5.50E-07
mp-16728,221,0.170083167,3.575402096,Sc1P1,0.55770427,35.26433799,,6.73746049,-13.61041503,520,0.000157
mp-16731,221,0.287637272,4.727740119,Y1P1,0.55056102,42.10569338,,5.73117603,-14.02948033,520,4.28E-05
mp-16732,221,0.376114077,5.895552651,Y1As1,0.486676975,46.14357511,,5.05783046,-13.25435386,520,1.17E-05
mp-16733,194,8.783207566,4.09072947,Sc4Ga2C2,0.05755241,139.351231,,3.6224494,-54.08644642,520,0.0071399
mp-16735,225,-2.203919742,8.848959303,Cr1In1Co2,0.220595721,53.42131785,,7.37040265,-25.75320649,520,3.1582206
mp-16742,129,9.557848556,6.298243483,Ba2Ag2Te2F2,0,206.593656,,3.38119315,-35.3340059,520,4.16E-05
mp-16747,189,11.03514256,11.16243307,Lu3Ag3Pb3,0,218.69495,,5.40304487,-35.88337463,520,2.80E-06
mp-16753,186,4.594991914,11.28607487,Lu2Cu2Pb2,0,131.1569959,,6.22489861,-26.65665706,520,2.50E-07
mp-16756,127,7.003729256,13.49344018,Ta6Ga4,0,167.9287963,,5.43381458,-86.02868927,520,3.75E-06
mp-16763,166,19.09845629,4.392358777,K1Y1Te2,0,144.8710098,,2.77566564,-19.49630893,520,2.56E-05
mp-16764,194,10.12529522,4.687509997,Rb2Y2Te4,0,304.3508459,,2.68594568,-38.61512419,520,6.65E-06
mp-16765,166,8.199275895,5.957327616,Zr2Te2P1,0,130.6231218,,5.30136834,-34.36684895,520,0.0005611
mp-16766,191,3.359529466,6.882278173,La1Al2Ag3,0.071459298,124.6133624,,5.93075724,-22.52038619,520,2.71E-05
mp-16775,194,13.88933115,8.924147443,Cd4Cu8,0.018526947,178.2597539,,5.02374703,-36.23095221,520,2.78E-06
mp-17013,193,10.74437959,13.74287001,Ta10Ge6,0.087945616,271.2999193,,,-150.6607572,520,1.20E-06
mp-17045,55,9.549332639,13.20823734,Hf6Rh10,0,264.0112826,,6.14512968,-148.0644539,520,1.74E-05
mp-17112,59,24.26334547,3.967406611,K6Ge8Au2,0,506.2902596,,1.08411803,-54.57365993,520,4.40E-06
mp-17383,62,0.429720534,8.846338514,Ni8Ge4,0.002134875,142.6791071,,,-68.36785954,520,2.25E-07
mp-17413,55,8.12223444,9.261615403,Ti6Rh10,0,235.9951304,,6.83771469,-133.4416564,520,6.13E-05
mp-17706,193,11.8617273,6.96201139,Zr10Ge6,0,321.5363124,,4.67570821,-126.0031484,520,5.29E-05
mp-17751,193,11.25412334,5.420577498,Y10Ge6,0,405.8692426,,3.68069499,-105.7305469,520,2.63E-05
mp-17757,140,11.62450318,4.08496423,Sr10Ge6,0.002531264,533.3446071,,2.31257636,-53.47803001,520,0.0010692
mp-17830,59,31.68131741,4.454622506,Rb6Ge8Au2,0,554.6260114,,1.08882039,-53.62428093,520,4.64E-05
mp-17910,193,-1.013857061,8.211623556,Nb10Ge6,0.065724988,276.0082741,,5.4145586,-135.3513557,520,0.00022025
mp-17942,62,-0.998738371,5.590660783,Mg4Ni8P4,0,205.1406213,,7.9516849,-83.29843432,520,2.75E-06
mp-18063,166,17.7592147,6.182807838,Sr4Sn12,0.007979713,476.7181632,,6.29543562,-61.19592143,520,0.000226425
mp-18090,62,45.05918927,5.276850661,Ba12Ta4As12O4,0,1049.398587,,1.96159368,-192.8036642,520,0.000216825
mp-18177,62,45.13613571,4.717377873,Ba12Nb4As12O4,0,1049.891353,,1.91600917,-184.94026,520,6.06E-05
mp-18199,62,23.95250891,4.994862165,Sr12Ta4As12O4,0,910.3423695,,2.15483929,-190.3836179,520,0.00018605
mp-18561,55,6.788297777,10.47626883,Ga4As2Rh10,0,231.0667641,,6.57265072,-103.3095755,520,1.36E-05
mp-18591,33,2.956514164,3.071652134,K4Zn4P4O16,0.008433128,431.3536709,,-0.13718483,-169.5552272,520,0.000218475
mp-18614,136,-56.61822635,8.091796704,In12Rh4,0,367.2153129,,7.55405277,-67.11227225,520,2.50E-08
mp-18640,167,16.64092573,2.844767549,Li2Ti4P6O24,0,452.4846391,,1.08828474,-278.7624512,520,2.10E-06
mp-18673,62,28.03144032,3.881418469,Cs4Zn4P4O16,0.014189163,501.8913036,,0.23379266,-168.282065,520,0.00047455
mp-18717,221,2.736561619,5.218857989,Sr1V1O3,0.035754378,59.35966562,,,-36.2522689,520,0.9999999
mp-18721,12,1.383620831,3.589660834,Mn2P2O7,0,131.2918515,,3.0339778,-84.01820967,520,10.0000394
mp-18726,63,5.490829911,3.976018676,Cr2Ni2O8,0,145.9121664,,1.12984271,-73.84138428,520,2.00003135
mp-18728,164,3.129989703,4.61936233,Na1Fe2O3,0.087205791,65.66791649,,,-36.05024944,520,8.9999998
mp-18730,164,-0.655206457,2.732130301,K3Na1Fe2O8,0.025293872,230.9387666,,-0.71052582,-70.86205769,520,4.0001103
mp-18733,164,1.23067766,4.340171321,Al1Tl1Mo2O8,0,210.9031042,,0.05197074,-81.9292292,520,4.62E-05
mp-18740,12,1.169796801,4.447748003,V2Cd2O7,0,163.7862138,,-0.32850692,-69.34475013,520,0.0001063
mp-18741,159,0.306787745,2.833018481,Rb2Li2Cr2O8,0,244.3051392,,-1.53765689,-84.4257225,520,0.000133
mp-18745,129,10.34094938,6.048445227,La2Mn2Sb2O2,0.042461702,182.0764066,,6.80773672,-56.2980833,520,4.81278
mp-18747,221,-0.603377703,5.659056748,Sr1Mo1O3,0.071440475,67.94620521,,5.03840513,-34.69388907,520,1.9988286
mp-18748,227,1.983021678,5.905022558,Co6O8,0,135.4281453,,4.1112277,-85.12298669,520,10.4257417
mp-18749,63,1.25554233,3.855063085,Ni2S2O8,0,133.3199349,,2.55986866,-68.84839698,520,1.9999133
mp-18750,227,10.61032116,4.668870742,Mn2Fe4O8,0.014686872,164.0494708,,4.00590762,-98.79250675,520,14.99999895
mp-18753,146,7.619800803,3.215998832,Na3Mo1O3F3,0,139.3607469,,,-54.42256666,520,0
mp-18757,87,1.177428116,6.599737581,Sr2Cd1W1O6,0.023866654,142.7837048,,2.14007612,-64.37455571,520,0
mp-18761,164,5.754076152,3.047640514,K3V3O8,0,216.9169338,,0.89494649,-93.58528965,520,1.9997827
mp-18762,9,1.427348037,2.730233706,Na8Co2O6,0,241.9319584,,1.30357953,-70.56840067,520,2.999974
mp-18764,12,1.291724027,6.453306452,Ba2Sr1W1O6,0,165.2252834,,1.87692093,-69.29448944,520,8.00E-07
mp-18766,227,1.500531244,5.202897641,Si2Ni4O8,0.024446156,133.7073956,,5.22573364,-86.21369829,520,3.9999877
mp-18767,59,3.736302713,4.020585743,Li2Mn2O4,0.00397156,77.54483381,,,-52.9409616,520,3.99999945
mp-18770,221,2.936648739,5.460226293,Y1Cr1O3,0.302216066,57.44744941,,,-41.27859495,520,2.9998927
mp-18771,87,2.631928768,6.601100116,Sr2Co1W1O6,0.008713052,129.3016292,,3.35199018,-68.79082623,520,3.0000336
mp-18775,160,6.912599219,3.850722929,Fe3P1O7,0.036088856,133.8982204,,1.65619088,-75.81911793,520,15.0000071
mp-18779,63,0.293376392,2.669514193,Na4Cr2O8,0,201.5069909,,-0.62033101,-82.50793429,520,1.26E-05
mp-18780,12,2.598533605,3.951725798,K4W2O8,0,274.0030787,,-1.18294191,-87.23900671,520,1.30E-05
mp-18781,63,0.54136223,4.143347167,Cr2Cd2O8,0,183.0765832,,-0.80242456,-70.87466385,520,4.44E-05
mp-18782,141,2.536781892,4.21854002,Li2Fe2O4,0.017601964,74.62006288,,,-48.67658528,520,5.0000007
mp-18788,63,7.203645536,3.894780339,Cr2Co2O8,0,149.1601133,,0.82942021,-78.85802048,520,3.0001359
mp-18793,166,0.772289738,4.068720516,Li1Cr1O2,0,37.11304611,,2.96099252,-27.59723127,520,2.9999989
mp-18803,227,-58.20243277,4.867618697,Na4W2O8,0,200.4655087,,-0.14794777,-87.50317608,520,1.88E-05
mp-18807,12,4.565987447,3.964965597,V2Zn2O7,0.032445805,144.3600151,,,-70.61809042,520,0
mp-18814,167,-12.28651753,3.538836578,Mn2C2O6,0,107.8738085,,2.51987932,-79.09963448,520,4.9999649
mp-18817,63,-7.216950015,4.572635132,Ni2Se2O8,0,146.4579387,,2.12049435,-61.35365996,520,2.0000212
mp-18819,12,2.766064653,4.061524675,Ni2P2O7,0.010021173,119.1092221,,3.09379267,-71.02433993,520,3.9999957
mp-18828,227,32.05240839,6.065936428,Tl2Fe2O4,0.185982884,159.9932719,,,-43.53400611,520,5.0000005
mp-18829,225,4.439574145,5.51521444,Sr2Zn1Mo1O6,0.025230982,130.2442457,,2.66232028,-63.32732484,520,2.40E-06
mp-18834,88,0.350502639,4.474011012,Sr2Mo2O8,0,183.7630969,,0.76907994,-84.74031304,520,5.50E-07
mp-18835,63,2.596950755,3.56950329,V2P2O8,0,135.7578263,,3.00494408,-91.96493335,520,2.0000471
mp-18837,164,1.082189804,3.020058734,K1Sc1Mo2O8,0,222.0952031,,-1.28158445,-87.00063461,520,0.000188
mp-18840,166,3.710273816,5.807426328,Ba3Mn3O9,0.007278042,206.0980936,,2.47276108,-103.4148146,520,2.9999364
mp-18841,221,1.698806568,6.560108088,La1Cr1O3,0.085190397,60.47192964,,7.2039854,-40.79248853,520,2.9989836
mp-18847,227,3.661540891,5.377311424,V4Cd2O8,0.068352122,171.875508,,4.0356107,-95.19258769,520,4.0000064
mp-18848,225,-0.456403933,6.15122726,Sr2Mg1W1O6,0.009133239,129.4101967,,2.81039496,-68.8589943,520,1.00E-07
mp-18850,123,8.028047716,5.559373449,Ba1Y1Mn2O5,0.000371144,124.2874156,,,-69.70174854,520,9.0000001
mp-18852,227,0.757138519,3.462291529,Na4Mo2O8,0,197.5185768,,0.05184734,-84.83606155,520,3.47E-05
mp-18864,12,20.39752328,4.549659382,Rb4W2O8,0,305.6884875,,-1.27098146,-86.57722087,520,0.0001752
mp-18868,164,19.88223988,3.350445905,Rb1Fe1Mo2O8,0.000255646,228.5727633,,-0.96686781,-80.73432737,520,4.999819
mp-18873,11,1.241605948,3.531644803,Rb4Na2Mn2O8,0,294.2073494,,0.60936238,-84.5742912,520,2.0000243
mp-18875,13,1.290596417,6.570296203,Mg2W2O8,0,137.5595248,,2.25055544,-85.13351192,520,2.73E-05
mp-18878,5,6.742214247,4.02085577,Li1Fe1As2O7,0,134.0641189,,1.81864852,-67.32638123,520,5.0000112
mp-18879,227,9.022111606,4.880459412,V4Zn2O8,0,157.3890398,,,-99.10712691,520,4.00000075
mp-18901,5,1.436361871,6.636390322,V2Ag2Hg2O8,0.029804967,211.8825783,,1.04099804,-74.81228991,520,2.94E-05
mp-18903,225,1.13891106,6.462998665,Sr2Cd1W1O6,0.081526788,145.8046073,,2.04150499,-63.79795437,520,6.00E-07
mp-18905,225,17.49175597,5.866405277,Fe2O2,0.359763627,40.67241364,,,-25.19551434,520,4.00031705
mp-18906,63,2.331011298,3.740038075,Cr2P2O8,0.018396107,130.5041304,,2.98874046,-90.92537533,520,2.9999201
mp-18908,12,0.335716699,5.911445242,Sr2Ni1Te1O6,0,128.5212099,,3.87026313,-58.21984255,520,1.9999579
mp-18909,148,0.65104452,4.568922878,Ba1Ni2P2O8,0,161.606912,,2.66073405,-85.8143295,520,3.9998342
mp-18912,123,0.477049474,2.30057561,Na5Ni1S1O2,0.138302326,171.5745261,,1.34590652,-32.86294809,520,0.9999671
mp-18913,166,1.421426924,5.004713297,Ba3Cr2O8,0.019963342,213.6655199,,2.63946562,-88.76493695,520,2.0001221
mp-18914,12,0.992502908,2.929461694,K4Mo2O8,0,269.9684633,,-0.92360356,-84.75623256,520,5.10E-06
mp-18915,62,3.022987636,3.64273935,Li4Co4P4O16,0.029208089,293.2851364,,2.82555374,-185.2724244,520,3.0004251
mp-18918,13,1.328130229,7.493223622,Zn2W2O8,0,138.8342947,,1.77753134,-78.3160383,520,3.77E-05
mp-18934,59,7.871348234,3.187448555,Li2V4O10,0.081986108,196.7370683,,,-113.8600648,520,1
mp-18937,167,7.685540175,4.643589069,V4O6,0.011643768,107.1944913,,4.67511533,-80.20753007,520,4.0000065
mp-18938,5,1.241547532,6.329113229,Tl4Mo2O8,0,298.4163791,,1.00338911,-82.0845426,520,0.0003068
mp-18939,215,-2.068379842,1.653611844,Li1Co1C4O4,0.395883364,178.6599025,,-1.54937948,-70.88773882,520,6.91E-05
mp-18940,87,2.017339801,5.578945605,Sr2Ni1Mo1O6,0,126.7575415,,3.21783441,-64.39654666,520,1.9986688
mp-18943,63,-0.079725528,5.835414443,Ba2Ni2O4,0.081672629,129.7713426,,2.73956975,-42.43060575,520,0.00020715
mp-18946,167,2.733992981,3.8758691,V2B2O6,0,94.04100981,,3.52445004,-80.87333313,520,2.00000295
mp-18949,63,8.173817141,3.769746854,V2Fe2O8,0.014605323,150.4576708,,0.79669519,-86.01459492,520,4.99999165
mp-18950,162,1.198239154,4.245487039,Ba1Ca1Fe4O8,0.025237888,206.8220107,,1.53219676,-92.317421,520,19.9999917
mp-18953,4,5.932563702,2.959675641,Na2V2O4F4,0,161.5016136,,,-72.65058584,520,0
mp-18957,12,2.260810129,4.014431092,Na1Mn1O2,0,45.47031207,,,-25.39150704,520,3.9999999
mp-18962,225,0.500840361,4.640427407,Sr2Ca1Mo1O6,0.07283943,145.7326602,,2.40289623,-67.06424278,520,2.00E-07
mp-18965,194,-0.158058282,5.982899428,Ba2Co2O6,0,135.5866351,,2.48654896,-60.42642593,520,1.00396105
mp-18966,194,4.214990555,6.288904783,Fe2Ag2O4,0.000154551,103.3526275,,,-44.84017395,520,5.0000004
mp-18971,65,5.777879928,10.28643487,Mn1Pt3O6,0,118.8425677,,,-63.08637764,520,5.0000004
mp-18977,225,6.981386256,6.376281622,Ba2Ca1W1O6,0.002993629,154.8400931,,2.20155745,-70.22395264,520,1.30E-06
mp-18981,225,1.151316338,5.598384305,Sr2Ca1W1O6,0.072872671,146.8679475,,2.23250904,-69.2339486,520,5.00E-07
mp-18986,225,-0.77562198,6.887366922,Ba2Mg1W1O6,0,139.5471403,,2.62068675,-69.08453303,520,1.25E-05
mp-18988,12,-6.990177674,3.711806783,Li4Mn2O6,0,104.5212037,,,-74.21827752,520,2.9999999
mp-18992,225,1.335957694,6.335366307,Ba2Mn1Te1O6,0,144.9941432,,3.75908855,-64.8046955,520,5.0000208
mp-18997,62,11.96617114,3.323812668,Li4Mn4P4O16,0,313.4427241,,2.67703873,-201.1028825,520,5.00000285
mp-19000,129,2.354469246,2.952602737,V2P2O10,0.014689939,182.1183925,,,-102.9700242,520,0
mp-19006,225,1.775549731,5.190708089,Mn2O2,0,45.38663889,,,-31.42507396,520,0
mp-19009,225,1.154932315,6.676074962,Ni2O2,0,37.156656,,5.76457883,-19.42969672,520,1.0000432
mp-19019,13,4.106010545,5.458432062,Ni2Mo2O8,0.010392905,133.02183,,3.08764924,-76.23844623,520,2.0001631
mp-19021,148,6.347508811,4.497755869,Ba1Co2P2O8,0.012120752,164.3410441,,,-90.64735425,520,5.9999996
mp-19025,221,0.0882633,6.544061569,La1Mn1O3,0.078503333,61.36672234,,8.0202812,-39.8433264,520,4.0020687
mp-19026,9,7.426013424,2.630607693,Na8Fe2O6,0,247.1956014,,1.28960084,-73.05110139,520,4.0000668
mp-19027,123,0.091546144,2.288898189,Na5Co1S1O2,0.012245122,172.6238244,,1.37832485,-35.73341052,520,1.9996643
mp-19029,87,8.019628771,4.62672929,Rb1Cr4O8,0.03717987,151.2580091,,,-93.23444787,520,9.000001
mp-19039,88,0.297478901,5.739635919,Cd2Mo2O8,0,157.5868188,,1.39403602,-73.06890429,520,6.25E-05