material_id,spacegroup.number,delta_volume,density,full_formula,e_above_hull,structure.lattice.volume,band_gap.optimize_structure_gap,efermi,final_energy,encut,total_magnetization
mp-571587,129,9.325818045,2.177384358,Na4Li2N2,0.420221463,102.0814649,,2.17326916,-23.52964454,520,0.00022325
mp-571589,187,2.604694931,8.563765776,Mo2C1,0.647980282,39.53499852,,7.96276328,-29.31502756,520,5.10E-06
mp-571599,11,15.78792836,9.338023386,Ba2Bi4Pd4,0,273.1854798,,4.81728487,-46.53412122,520,1.79E-05
mp-571647,164,3.044773112,5.18751105,La2P1I2,0,180.0880417,,5.83726296,-26.36619987,520,0.0019649
mp-571653,215,1.19157272,3.700883361,C3N4,0.488738872,41.30565126,,9.46874444,-56.06513739,520,0
mp-571655,166,0.051222403,1.987782949,B12C3,0.864977801,138.4747563,,3.87281885,-95.84675557,520,1.36E-05
mp-571664,140,2.972144066,7.817082801,Zr4Rh2,0,121.2320859,,4.84958197,-52.22118716,520,7.14E-05
mp-572313,12,15.76001755,4.762207193,Cu3Te2Br2O6,0.017811264,244.6564272,,2.53770936,-60.81387007,520,0.8009591
mp-572465,14,-56.3181472,2.818959792,Cr4Cu4P8S24,0,871.5265221,,3.35868643,-211.3962436,520,2.99972255
mp-572670,14,144.77321,1.653808743,B16S24,0.010040278,946.3717197,,0.09538755,-223.08603,520,3.16E-06
mp-572758,2,59.4001832,6.733376284,Re8S16,0,493.8911406,,,-179.3053687,520,0
mp-572797,164,9.544398106,5.319963734,Cs2Ir1F6,0,178.5460962,,0.3978073,-41.67110168,520,1.0086567
mp-572822,11,-9.607849953,1.931694318,Ti4O8,0.527847954,274.6195971,,-2.42629136,-101.3462091,520,3.23E-06
mp-573204,225,-206.1163927,4.474831203,Cs2K1Bi1F6,0,232.9963396,,-0.54538648,-45.0516715,520,0.000473
mp-573316,166,28.35418198,6.985201809,Cs2Pt4Se6,0,361.3159391,,2.2321504,-54.9438913,520,5.85E-05
mp-573321,2,19.26440777,5.923699175,Te2Pd2I4,0.018826299,273.4976831,,3.48774295,-24.68059847,520,0.00018225
mp-573523,12,3.39621069,4.476870047,Sr8Fe3N8,0.026123799,363.7003562,,,-117.2453608,520,7.9999993
mp-573568,14,57.85308742,4.137562658,K4Tc2I12,0,752.5978082,,1.45287012,-56.44393856,520,0.99997195
mp-573579,64,701.6791351,1.865354336,Cs8,0.055571724,946.4998141,,0.48779136,-6.71854664,520,0.0001521
mp-573581,15,24.10882929,3.922703848,Na8Te4Se12,0,695.0145762,,1.49385922,-80.10327382,520,3.60E-06
mp-573658,15,18.05846563,3.788099453,Cs6B2As4,0,490.4077398,,1.47485363,-41.52835742,520,3.50E-07
mp-573691,64,497.2381785,0.87770805,K8,0.028183398,591.7617232,,-0.11611788,-8.65720739,520,1.16E-06
mp-573697,225,5.098035461,3.175105507,Cs1Cl1,0,88.04928891,,-1.55154403,-6.63990302,520,0
mp-573721,72,18.84275855,3.989293748,Cs4Si2As4,0,369.412223,,2.76085273,-37.59410318,520,5.00E-07
mp-573755,51,20.29214286,5.898250333,Cs2Te2Au2,0,257.5849133,,1.86469092,-18.89683395,520,8.00E-05
mp-573763,62,40.37164906,3.989103818,Cs8Te4,0,655.0585739,,1.21049465,-31.63549709,520,2.43E-06
mp-573947,72,14.83604715,4.204410402,Cs4Mn2Se4,0,378.1022311,,,-45.22011531,520,4.99999985
mp-574025,225,9.496968492,14.51937039,Hf1In1Au2,0.045282297,78.59781166,,7.24168752,-20.79833816,520,7.42E-05
mp-574250,143,-56.10796299,3.50956398,In1Si1Te3,0.346123422,248.7349398,,,-16.9011315,520,0.913508
mp-574369,127,1.245865388,7.040257647,La4In2Cu4,0,245.1662863,,7.65835755,-45.01216726,520,1.80E-05
mp-574599,63,21.34377774,5.817991289,Cs2Au2Se2,0,233.3731688,,1.19897208,-19.9385144,520,9.75E-06
mp-578601,166,12.60658203,5.39174734,Na1Nb1O2,0.185104037,45.54837636,,5.4862633,-29.31399305,520,1.70E-06
mp-578606,166,9.238598644,4.666416455,Na1Cu1O2,0.127719388,42.18039298,,3.38445678,-18.81476329,520,1.9981744
mp-578614,166,-7.944874312,4.117821415,Na1Cr1O2,0,43.14228377,,2.94829617,-26.44158138,520,3.0000721
mp-578615,166,5.317983928,4.0452663,Na1Mn1O2,0.083513152,45.12371276,,,-25.05745443,520,3.9999997
mp-578618,166,7.729755645,4.968679683,Na1Mo1O2,0,50.44051892,,6.25017925,-25.05424782,520,1.1254879
mp-578619,166,0.582484667,4.565541732,Na1Ni1O2,0.02543551,41.34741488,,3.36487561,-18.16746074,520,0.9997577
mp-579496,221,-0.048523591,10.87520387,Fe3Pt1N1,0,57.50712226,,6.29504498,-40.69636044,520,8.1887828
mp-579560,164,39.86467985,3.972975261,Cs3Sb2Br9,0,568.9972366,,0.44404969,-42.50053605,520,5.70E-06
mp-579909,65,13.01068525,1.887885163,C8,0.944070784,84.5146162,,3.49520875,-66.25122238,520,5.05E-06
mp-580136,216,0.169340492,9.64545703,Lu1Cu5,0,84.82154872,,,-26.23983168,520,3.00E-06
mp-580226,129,3.922507055,6.130628111,Cu2Se2,0.050241939,77.19821595,,3.43822207,-15.48762799,520,0.00096445
mp-580234,221,1.005302333,8.264553333,Fe3Rh1N1,0,57.15199133,,5.61428679,-41.45252264,520,0.0023825
mp-580357,221,1.248936906,9.623131067,Cu3Pd1,0,51.25945004,,5.93007682,-17.90435251,520,0
mp-580886,166,7.324675155,5.816178154,Zr2I2N2,0.029719405,132.5507927,,4.5246068,-44.88086729,520,3.85E-05
mp-580941,186,19.79799714,5.28690657,Ag4I4,0.047189777,294.954472,,1.17384578,-19.29524542,520,1.27E-05
mp-580962,59,75.06619553,3.148916418,Rb2C4I6N4,0.36664098,546.548591,,-0.25689342,-80.97724918,520,3.40E-05
mp-581024,225,8.134156988,3.290420729,Cs1K2Sb1,0,167.9816892,,1.8098597,-8.75153918,520,0.0003889
mp-581303,19,14.45817768,3.457110637,Na4Cu4P4O16,0.021752264,348.7301497,,,-171.8032939,520,1.00000015
mp-581665,194,41.87700512,4.419133507,Ca2In4,0.414098742,202.6961285,,4.25153939,-15.09272847,520,0.0001528
mp-581707,225,3.732012679,12.46329368,Zr1In1Au2,0.011602272,79.93730752,,6.9210877,-19.6413218,520,5.38E-05
mp-581716,59,21.83653218,9.948973736,Sr2In6Au6,0,341.4800003,,5.67559344,-46.11644296,520,3.90E-06
mp-581786,59,3.064908538,8.896313305,Cu6Sn2,0.017316695,115.4825405,,8.54294774,-32.58155785,520,8.99E-05
mp-581833,123,9.170696498,2.471405104,Rb1N3,0.014279671,85.65922063,,-0.53713405,-26.48957393,520,0
mp-582028,221,-1.686630393,7.877937041,Mn3Rh1N1,0.089880141,59.38325928,,5.90260947,-43.93998604,520,8.8027461
mp-582549,9,41.72573086,5.458185685,In4Te10,0,527.9202774,,,-45.59224684,520,0
mp-583030,216,-3.901243598,10.6402653,Mn1Sn1Pt1,0.301249962,57.54498958,,6.68916099,-19.49103085,520,3.4782059
mp-583202,194,3.19933313,7.710366565,Mn2Ni2Ge2,0.322533443,80.23250357,,6.3901517,-38.73946296,520,3.75582115
mp-583712,176,-205.2833321,1.271217526,Si18N24,0.633001649,1099.477744,,-1.21948593,-317.0496022,520,3.83E-07
mp-585408,148,18.13868318,3.124631216,Li6Sn4P6O24,0.048489052,577.3055979,,1.50988046,-262.3748869,520,0.00013445
mp-601195,63,-5.498788793,1.538480725,Cu2O4,0.274147743,206.2500595,,-4.46559167,-27.70124698,520,1.00005735
mp-601401,57,2.399743431,1.559643103,K4C4S4N4,0.035332995,413.869932,,-1.0978062,-97.54772827,520,3.15E-06
mp-602393,146,-74.83429567,8.710181246,La4Ni3Pb4,0.152765139,297.4995069,,7.80530137,-55.45020769,520,0.0011828
mp-603251,221,-24.48098286,9.108026205,Pd1O1,0.817836608,22.31901714,,4.55528413,-9.37744395,520,0.0129851
mp-603347,51,-0.947984834,6.629376844,Ti2Ni2,0.022273947,53.38290717,,7.28278418,-28.8535374,520,0.00126085
mp-603640,44,7.555242539,6.201371086,Ga1As1,0.353196935,38.73143566,,4.6950852,-7.68340866,520,9.40E-05
mp-603719,65,7.252110409,4.077216684,Al1P1O4,0.361047867,49.66808688,,7.24712805,-42.75073999,520,1.08E-05
mp-604119,19,52.76150998,2.070449923,K4P4H8O16,0.057742919,436.5724624,,-1.02783991,-189.6465921,520,0.0001555
mp-604153,123,-1.320344894,5.855572857,La1Cr2Si2C1,0.003448188,88.21672124,,8.87550718,-46.8676355,520,1.1808553
mp-604313,213,74.90347983,0.520513522,Li4,0.27535674,88.5725423,,-0.23540716,-6.53046364,520,0.000367075
mp-604318,194,258.8892547,0.886324165,K4,0.017708397,293.0045512,,-0.1064463,-4.3705037,520,0.000370175
mp-604321,194,318.7799684,1.543850283,Rb4,0.053789527,367.7108334,,-0.0030595,-3.85097177,520,0.000334975
mp-604325,15,119.0367445,0.844258884,K2,0.075528137,153.8017657,,-0.19861208,-2.06961237,520,0.0004482
mp-604884,187,7.173161721,2.128161954,B2N2,0.00494314,38.72896952,,1.8527956,-35.13069451,520,0.0001944
mp-604908,129,11.00925259,5.991890534,Co2Se2,0.007519769,76.42897759,,3.91033718,-22.27267795,520,0.36042155
mp-604910,129,13.49107591,5.452821,Mn2Se2,0.030967002,81.55152391,,3.63259995,-26.61468416,520,1.4147628
mp-604915,129,9.430454813,5.520958379,Cr2Se2,0.129819608,78.77535081,,4.33488878,-27.47122971,520,0.38132675
mp-605650,187,12.86013621,5.809057587,Ba5Ga5Pb1,0,355.1585949,,3.15497272,-33.69758987,520,0.0091983
mp-605839,55,-164.1988127,7.255492009,Li4B4Rh6,0,157.56108,,5.0602088,-85.4825162,520,0.00124625
mp-605853,8,-4.80996924,2.288448509,Li4C1O4,0.186915357,75.2990311,,1.06186485,-51.88440646,520,5.42E-05
mp-607225,127,-12.42498223,7.200126146,Mn4Ga10,0.030848104,211.4802821,,4.74225302,-68.77327537,520,4.5461415
mp-613402,221,16.87539665,4.405913712,Sr1Zr1O3,2.530374469,85.49425923,,2.02504838,-28.67914262,520,1.1393071
mp-615152,111,0.916426902,4.202839607,Mn4F8,0.046508517,146.8739836,,0.60636459,-76.56787144,520,5.000080375
mp-615682,123,5.97652628,7.209720412,Ba2La1Ta1Cu2O8,0,195.6781731,,4.31696798,-101.8270451,520,0.0031674
mp-620404,2,13.93017495,2.673431459,Sn2C4S4N4,0.200072473,291.77391,,1.41731793,-92.71744346,520,0.0001671
mp-622210,47,-104.4354045,6.461076474,Ba2La1Cu3O7,0.018483564,184.0663688,,3.93337735,-79.05150052,520,0.0024964
mp-622618,82,0.197444356,6.861802757,Ba1La1Ni1Ru1O6,0.03225261,128.7407937,,5.63292593,-68.41538487,520,1.6914529
mp-622980,216,2.614680595,7.46611654,Mn1Te1Pd1,0.234651635,64.26716112,,6.08203636,-17.50828456,520,4.5101434
mp-623134,225,1.49897139,8.366628811,Zr1In1Cu2,0,66.11767117,,7.63471559,-20.3657283,520,3.25E-05
mp-623453,225,-0.458507204,8.512898338,Mn1Ga2Co1,0.157650831,49.41245036,,6.25773723,-22.53144432,520,3.6036869
mp-626012,1,13.70454084,2.851796805,Te1H6O6,0.049614986,133.7167126,,-0.32296833,-65.40277186,520,7.00E-06
mp-627439,221,-2.129951843,7.633005418,Mn3Ga1N1,0,54.0700181,,6.54126908,-40.29445489,520,3.0806598
mp-628616,115,-380.6762173,1.156396104,Na3Li3N2,0.609820649,169.1643343,,0.29592093,-23.04949854,520,2.2117056
mp-631392,216,0.291125254,13.80840211,Sr1Hf1Re2,1.133933775,76.78614958,,5.39656652,-33.19222849,520,0.0002045
mp-631946,216,0.578746206,15.6448547,Sn1Os2Ru1,0.664785808,63.70924963,,9.54988735,-33.37221129,520,2.0447811
mp-632282,5,23.91483077,2.578926983,Na1H1F2,0.28681529,39.91749834,,,-16.36266839,520,0
mp-632686,72,-172.4867972,7.670600711,Mn10Ge4,0.085522944,181.8311187,,5.68458412,-110.4773344,520,9.25800565
mp-634430,88,12.06221045,3.729880328,V4O8,0.15749165,147.6997587,,,-91.4063878,520,0
mp-636297,216,9.804048508,8.940083734,Hf1Ni1Sn1,0.88308759,66.1039541,,5.46538645,-18.98890321,520,0.0018593
mp-636813,55,43.62276117,9.306463014,Pb6O8,0.037474271,244.6604212,,,-76.0854109,520,0
mp-637377,127,74.97868061,5.932756478,Ti4In10,0.11704661,374.9585563,,5.89353476,-58.56367644,520,1.11472775
mp-637918,113,-1.940843492,7.070470199,Cr6Ge2N2,0.010344119,113.968344,,7.04525419,-86.3679216,520,0.00409805
mp-640079,123,-7.848619335,9.942927069,Mn9Au3,0.341062601,181.2597977,,4.97107637,-88.64853455,520,10.723316
mp-642653,26,-4.823426524,3.713555585,Ba2H4O6,0.320566547,167.5414141,,-0.59197978,-60.07057478,520,1.9997327
mp-642654,26,-5.854749812,3.132395068,Sr2H4O6,0.31251251,145.9246092,,-0.58735313,-60.21832198,520,2.00007965
mp-643099,8,51.83124912,1.036532212,H6C1N4O3,0.837114892,195.579211,,,-74.6949565,520,0
mp-644203,221,-160.0641535,2.96155239,Cs4Ca4H12,0.012200194,394.7483047,,-0.37143472,-59.84578587,520,8.68E-06
mp-644222,186,6.882805897,4.349864259,Cd2H2Cl2O2,0,125.8776276,,-0.27131964,-30.96098005,520,0.00026445
mp-644739,125,2.729352527,6.385393237,La2Ga12,0,289.8253882,,4.68172522,-51.54756624,520,0.00191805
mp-645300,38,25.38542578,4.153933844,Rb4C1O4,0.747472653,167.0477311,,2.50865719,-39.36000701,520,0.0106699
mp-645330,5,2.421363229,4.390741737,Cs4C1O4,0.229853491,229.8002424,,,-43.74138224,520,0
mp-646507,127,1.955619114,11.65044638,Hf4Ni4Sn2,0.020866027,169.062566,,7.6590816,-76.61275188,520,0.00042245
mp-655353,72,-28.56453945,2.302878198,Ru2C8O8,0.221179779,307.3355241,,0.32127366,-143.6405547,520,0.00023895
mp-655489,44,22.55937341,6.452162086,Pb4Se1Br6,0.042723844,357.0079544,,2.28696447,-37.15749068,520,0.0029662
mp-669435,54,3.70462781,2.865865142,K4La4C4O16,0.87075369,588.7185027,,,-182.6889291,520,1.998917925
mp-672229,221,36.49940555,4.152180533,Mn3Zn1C1,2.069784402,96.87409702,,1.81880453,-27.975933,520,11.2429984
mp-672271,187,40.42765466,5.561002375,Nb4Se8,0.371656236,299.5913097,,2.96735872,-73.97721707,520,0.0001091
mp-672356,216,-1.935272524,10.6559656,Mn1Sb1Pt1,0.26901344,57.93549109,,6.91103367,-19.64471006,520,3.4206674
mp-672389,11,72.18403201,5.911143413,Mn4Te4,0.000956277,205.1119581,,5.18952047,-49.93970228,520,3.717403775
mp-674232,8,-238.3208567,3.637566336,Ca4Sn4F6,0.311145573,341.9814565,,3.08266395,-67.98069098,520,0.00054235
mp-674463,26,35.07276782,3.421325937,Al2H2O4,0.230128016,58.23056932,,5.15544547,-50.63520944,520,0.0001653
mp-674849,11,23.08118474,7.951752103,Tl2Bi2F8,0.004095846,204.3818549,,4.24359118,-54.38519837,520,0.00026785
mp-675334,10,42.87635437,4.080888718,Li1Ti2O4,0.169189755,67.82011917,,5.7363632,-56.27708324,520,0.9740225
mp-675367,15,3.84156265,4.828632232,Nb6Ir2S16,0.023405784,500.3360216,,4.40524776,-164.4775397,520,0.0029347
mp-675433,31,62.23878948,6.443994437,Mn4Sb2Te2,0.689399546,185.1415478,,,-49.52270414,520,8.1102047
mp-675692,5,71.3035626,3.889321542,Li3Ti6O12,0.049487192,213.4817265,,5.35753232,-171.3450036,520,0.009024367
mp-675926,2,17.52502285,0.859187531,Li2B2H8,0.072319605,84.20230181,,-1.87653812,-47.4252017,520,1.85E-06
mp-676040,12,31.66345365,3.177051436,Ni2P2S6,0.066895539,194.2879316,,4.77202588,-49.16665945,520,1.8831144
mp-676103,15,26.63264423,2.770235508,Rb2Cl2O8,0.006150423,221.6881717,,2.09251606,-52.72840577,520,8.53E-05
mp-676144,1,-0.389573149,4.020467244,Ti1Cr2S4,0.261506008,115.6952263,,6.37218096,-48.32013424,520,6.3698001
mp-676295,137,31.63512257,2.599570088,Li6Mn2P4,0.244239347,175.9294401,,3.59809109,-56.5149597,520,3.5818397
mp-676400,1,22.25356841,5.514923046,Tl1N1O2,0.069934684,75.39187295,,1.71957691,-22.23035497,520,5.10E-05
mp-676437,12,19.7606923,3.256566253,Co2P2S6,0.110964337,189.7885939,,5.2282635,-51.92905624,520,1.00718115
mp-676459,8,4.026379335,4.207113585,Ca2La1F7,0.083069414,138.9535231,,0.70928624,-61.57544453,520,0.0001642
mp-677191,82,4.045485535,6.788877659,Ba1La1Zn1Ru1O6,0.04385761,131.7663234,,4.66504922,-67.61189906,520,2.9999451
mp-677305,10,466.0180425,4.011718184,Li17Ti20O40,0.095156665,710.0060552,,6.13854463,-588.4177463,520,1.822558
mp-677445,139,2.307453442,4.47888783,Y4Si1S3,0,177.923447,,5.91755056,-57.74661603,520,0.0028598
mp-680731,9,16.78740349,7.11989936,Tl4Te6,0.041677206,369.2263544,,4.43939697,-29.99182045,520,0.00064575
mp-684617,1,1.556467861,8.539819124,Bi6O9,0.117974433,271.8124703,,4.54784469,-84.52353232,520,1.73E-05
mp-684904,15,-43.45924091,1.715020984,K4O2,0.039694768,182.4072555,,,-20.21220379,520,0
mp-684950,1,111.0396127,2.922007859,K1Na1Zr2Be1P4O16,0.946419186,359.9721279,,1.76665989,-175.7998223,520,2.37E-05
mp-685146,36,-359.3508104,5.477522716,Cd2Te2,0.00514233,145.5211256,,1.82761809,-9.94382066,520,0.00014515
mp-685194,15,12.87147352,3.383784529,Li8Ti10O24,0,450.5841612,,1.38378332,-331.0731996,520,0.0010586
mp-685935,36,6.048866965,4.995992254,Cd2Ge2O6,0.102291941,154.9190932,,-0.08589145,-54.2823215,520,3.00E-05
mp-695850,12,11.84520711,3.641567062,Cd1Cl2,0.002129207,83.5917697,,-0.92901984,-7.87264456,520,3.20E-05
mp-697179,131,1.609756249,5.797302504,Zr4H4,0,105.6731037,,4.00752276,-51.08125477,520,0.0001099
mp-703272,1,-68.45711246,1.516253283,K5N1O4,0.192011912,299.521497,,0.56692718,-41.7728187,520,1.0037741
mp-703295,62,21.44541856,4.206062148,Sr4H8I8O4,0.000794294,567.6294254,,1.68316648,-98.98456571,520,1.06E-05
mp-704227,2,8.137712398,3.218610753,Mn9P8O32,0.041629716,647.0711467,,1.73691863,-365.7930502,520,39.0068494
mp-704240,146,-4.722487991,2.934732482,Co6P6O24,0.017925579,522.4963983,,-0.03730962,-241.9419398,520,3.999621717
mp-704600,148,0.908363906,2.988614799,Li1Ti4Mn1P6O24,0.003311656,457.3739596,,3.737847,-282.6809472,520,6.0639976
mp-704645,15,2.139693727,5.938475254,Cu2O2,0.00127582,44.48557466,,4.56088326,-20.47351948,520,0.0007827
mp-704745,38,-45.80469415,8.064159341,Cu8O1,0.179117903,107.9756119,,6.20844157,-37.36326083,520,0.0001686
mp-704810,12,6.927606611,2.232343997,K8Cr8O28,0.069443723,875.322108,,-1.980738,-271.2244076,520,7.03E-05
mp-705333,19,5.051622341,2.936196796,Li4Mo4P8O32,0.033387911,662.4150347,,0.76499494,-336.3890127,520,0.999046875
mp-705354,161,9.244080381,3.146714385,Mn8P6O24,0.057187924,532.6305055,,1.49996277,-287.8576283,520,19.0010684
mp-705439,47,1.908174661,1.438415596,Cu2O4,1.30271134,220.5980955,,-2.37353175,-23.7551054,520,0.0247261
mp-705785,74,2.456946754,5.239938106,V2Zn4O8,0.019755402,155.7610989,,2.08107887,-82.77398167,520,0.9999781
mp-706269,164,-14.63147003,5.598501202,Mg1Nb5O9,0.970135302,187.7004887,,5.19778912,-117.67694,520,8.83614
mp-706543,2,1.688062194,2.73600139,Ba2P4H8O16,0.052296547,402.1482227,,-0.31057365,-188.9227505,520,6.50E-05
mp-707120,56,37.54820363,3.020111118,Ba4P8H8O32,0.111439225,724.2006396,,-0.42037023,-331.8830713,520,1.9991521
mp-707190,128,340.5789461,3.545944991,K4Sn2Br12,0.004630073,633.4409406,,-0.5193846,-53.4767727,520,0.00080605
mp-707206,148,-0.334686698,1.955888993,Te1P6H30N6O24,0.037757072,689.1344328,,-0.87607332,-385.8900807,520,0.0123224
mp-707727,62,11.08421318,1.346395576,H8C8N8O4,0.22442855,345.5771682,,-2.21753542,-193.6073049,520,0.001246975
mp-707891,2,13.01667049,2.594452123,Zn4P4H2N2O16,0.44302652,429.8156791,,,-163.6903291,520,1.9993
mp-714880,58,-16.77768541,4.470118888,V2O4,0.001667998,61.62055623,,3.24795049,-46.63813581,520,1.0008207
mp-714896,167,34.80209696,4.654227377,Cr6O2,0.727212204,122.7238238,,4.60811213,-56.22291828,520,13.27934415
mp-714904,141,16.08307815,3.962788967,Fe4O8,0.209225097,147.2377768,,0.67120769,-73.12417694,520,3.99917075
mp-714906,167,24.65519365,2.66517614,V4O6,0.623617055,186.767081,,1.47023572,-74.0877972,520,3.9194044
mp-714929,12,17.36649548,3.966466856,Cr2O4,0.185485013,70.32798491,,1.44444691,-43.39888306,520,1.9998314
mp-714931,2,-34.28333779,1.79855848,V4O8,0.433222683,306.302203,,-1.65774955,-88.0976154,520,0.000694775
mp-714944,12,3.978042414,3.721442391,V2O4,0.14425584,74.01732536,,1.39957759,-45.78260876,520,0.49999975
mp-714960,141,10.56893714,3.740696663,V4O8,0.159000077,147.2726805,,1.6796531,-91.38828668,520,1.000000275
mp-715438,36,6.288560863,5.35641385,Fe6O8,0.062071672,143.5545991,,4.25248452,-93.11871032,520,13.99986875
mp-715463,11,2.624786241,4.4343278,Mo2O6,0.038854954,107.8021343,,1.03937864,-55.93898582,520,0.0002714
mp-715479,12,18.59200467,4.300489214,Mo6O16,0.287562419,321.1157329,,1.17922733,-150.729326,520,2.0003003
mp-715488,58,-13.536652,4.656828693,Cr2O4,0.001069225,59.90205773,,3.05083147,-44.50537779,520,2.0000324
mp-715514,15,8.280118011,4.635027817,V4O6,0.013144775,107.3924877,,4.59074698,-80.19252,520,3.99999795
mp-715550,58,10.91421988,5.798552191,Mo4O8,0.013082747,146.5520117,,4.61209072,-88.83785614,520,2.00003505
mp-715574,7,3.271899377,3.279967808,Mo4O12,0.059778889,291.4845687,,-0.62082977,-111.5431887,520,0.000799625
mp-715614,12,7.424282873,5.065748331,Fe6O8,0.251267141,151.7915602,,3.50226435,-90.46997375,520,13.9999991
mp-720260,146,-0.534101518,2.123788589,Mg1P1H1O9,0.860437609,156.5951162,,0.36510626,-61.63080073,520,4.1127105
mp-720804,167,103.7497414,2.55887416,K6Na6Te2P12H12O48,0.029731756,1154.764124,,-0.30802506,-523.5188892,520,0.00254645
mp-721013,1,93.92757026,2.812659027,Zn4Ga4P8H16N4O32,0.008776751,810.2693313,,0.06185466,-415.9309998,520,0.004214625
mp-733610,15,13.26168562,1.590812952,H14C6N6O10,0.029469664,344.682802,,-1.30332811,-230.2143435,520,0.00087085
mp-733929,2,37.40475665,3.606144613,P4H8Pb2O16,0.049987298,369.4615519,,,-183.4083586,520,3.00E-07
mp-738697,2,41.38792306,1.731187602,Al6P8H36C6N6O32,0.028927349,1068.586747,,-0.8400369,-585.0275579,520,0.00884475
mp-743387,1,3.005287074,3.058135787,Li4Ti4Mn2Cr4P12O48,0.012714351,910.458885,,1.51010879,-561.014482,520,11.0003556