material_id,spacegroup.number,delta_volume,density,full_formula,e_above_hull,structure.lattice.volume,band_gap.optimize_structure_gap,efermi,final_energy,encut,total_magnetization
mp-863648,194,11.33758555,10.34644191,Ca2Hg6,0,206.0251574,,3.06574994,-8.93819389,520,3.95E-06
mp-863659,225,0.370977137,9.367759971,Li1Sc1Hg2,0.00113313,80.3128926,,3.23660512,-10.43487599,520,0.0008349
mp-863707,225,6.782882101,3.843691084,K1Na2Bi1,0,127.0380929,,1.91331853,-9.16289087,520,2.90E-06
mp-863720,221,1.832724293,12.90442487,Hg1Pd3,0.01408297,66.89420324,,4.01845771,-16.32203094,520,9.50E-06
mp-863724,225,2.556222042,12.57783457,In1Pd2Au1,0,69.26149117,,6.49085598,-17.98717042,520,8.00E-07
mp-863727,225,0.74784574,7.881917854,Li1Ti1Rh2,0,54.90643674,,5.3191507,-27.08684518,520,6.26E-05
mp-863744,225,1.737018994,6.830539323,Ca2Pd1Au1,0.002832628,93.24115991,,3.95105358,-15.43144978,520,1.07E-05
mp-864597,225,2.576522647,7.702120523,Li1Mg1Tl2,0,94.86453739,,4.89093906,-8.79201269,520,2.70E-05
mp-864598,225,1.742810916,3.634284106,Li1Mg2Ag1,0,74.66778974,,3.06784146,-8.79408922,520,5.78E-05
mp-864601,225,0.829304684,4.032199051,Li1Mg2Rh1,0,65.25550972,,3.76300016,-13.9899158,520,2.53E-05
mp-864607,225,1.560492129,9.548365945,Zr1Cd1Pd2,0,72.42841348,,4.5336534,-22.1755508,520,4.10E-06
mp-864614,225,0.856364386,6.267702454,Li1Mg2Pt1,0,66.40219528,,4.22755198,-13.69470092,520,5.30E-06
mp-864618,225,8.288098725,9.726935888,Ba1Hg2Pb1,0,127.3037676,,3.6005945,-7.95503653,520,0.0001926
mp-864623,225,1.249204144,13.94380896,Zn1Cu1Au2,0.000288215,62.26965454,,5.15307301,-12.48184349,520,4.20E-05
mp-864630,225,1.592840018,5.439795944,Li1Mg2Hg1,0,78.18898624,,3.359026,-6.43692529,520,4.11E-05
mp-864639,225,0.61342219,15.78175331,Ta2Nb1Os1,0,67.86958519,,6.22610185,-46.28625422,520,0.0002092
mp-864640,225,0.500947248,15.7892813,Ta2Nb1Ir1,0,68.04619673,,6.9172307,-44.20790141,520,7.00E-07
mp-864647,136,0.652451061,13.23693439,Hf4N2,0,93.07863593,,5.85837398,-63.98313177,520,0.00014295
mp-864650,225,0.639380344,18.39479135,Ta2Os1W1,0,66.43727852,,6.91843936,-49.09021927,520,8.70E-06
mp-864651,225,0.633962869,13.63375757,Ta2Nb1Ru1,0,67.70308073,,6.11033307,-44.13768667,520,7.92E-05
mp-864654,225,1.33347318,9.34195338,Zn2Ni1Rh1,0,51.97731766,,4.79665396,-17.03222963,520,3.15E-05
mp-864661,225,1.319719351,10.12904399,Zn1Cu1Pd2,0,56.03331783,,4.85448553,-17.33582968,520,3.00E-07
mp-864669,225,0.398339683,10.11292538,Nb1Ge1Ru2,0,60.37398334,,7.82230679,-34.34511197,520,0.7140545
mp-864670,225,0.601081936,15.71065798,Ta2V1Os1,0,63.74123413,,6.49769928,-45.35292268,520,0.0019056
mp-864671,225,0.605885974,10.87105302,Hf1Al1Rh2,0,62.82286645,,7.3648632,-32.50055021,520,0.000504
mp-864672,225,0.174764588,8.88148078,Nb1Si1Tc2,0,59.26685033,,8.20896125,-37.90297283,520,0.0001119
mp-864684,225,0.738145666,15.13283819,Hf2Mo1Ir1,0,70.79142464,,6.50157984,-42.04348576,520,0.1202795
mp-864733,194,61.73451162,4.122189292,Mo2I6,0.317247793,384.0200145,,2.04214383,-30.61614917,520,2.65673565
mp-864734,225,1.792281299,11.70615899,Hf1In1Pd2,0,71.79797527,,6.9487099,-25.83566944,520,2.00E-07
mp-864735,194,2.791740039,12.62533537,Mn6Ir2,0,93.9165766,,7.38795164,-73.83075582,520,0.00029405
mp-864754,194,2.886344921,5.708955395,Na2In6,0.00389814,213.7535439,,5.82400136,-19.75541242,520,5.86E-05
mp-864761,225,0.506046439,16.29268866,Ta2Mn1Os1,0.012268289,61.87150376,,7.17720745,-45.20863507,520,0.4770025
mp-864762,225,2.928989371,2.757195816,Li1Mg2Zn1,0,72.84894352,,2.91205971,-6.91844807,520,1.24E-05
mp-864764,225,0.750529173,16.15352254,Ta2Fe1Os1,0.019120589,62.49777282,,6.81585228,-44.44963484,520,1.6158958
mp-864768,225,0.230055978,14.06362846,Li1Sn1Ir2,0,60.22741989,,8.01224826,-24.72094116,520,3.20E-06
mp-864770,225,0.637191039,16.31549161,Ta2Mo1Os1,0,65.95807963,,7.23739523,-47.35053611,520,4.12E-05
mp-864772,225,1.034536741,6.255827277,Li1Sc2Au1,0,77.99105557,,4.03503771,-19.56869546,520,2.00E-06
mp-864782,225,0.701017812,14.13497923,Ta2Mo1Ru1,0,65.65873351,,7.26683097,-45.31766261,520,4.99E-05
mp-864788,225,0.387544853,10.42225738,Nb1In1Ru2,0,65.302149,,8.44115964,-32.40080195,520,2.30E-06
mp-864794,221,2.112029057,9.36924555,Zn1Ag3,0.008226967,68.94602841,,3.29090792,-9.88448003,520,3.70E-06
mp-864807,225,0.981813281,10.75546311,Hf1Zn1Ni2,0,55.77901848,,5.86247138,-24.50334167,520,5.48E-05
mp-864831,225,0.482970114,9.978120267,Nb1Zn1Rh2,0,60.59719198,,5.9947248,-27.94554122,520,3.60E-06
mp-864839,225,0.100023378,10.03289059,Zn2Pd1Rh1,0,56.29699195,,4.30217988,-17.12616103,520,1.00E-06
mp-864840,225,0.51769619,9.99639637,Nb1Zn1Ru2,0,59.87660038,,5.73892869,-30.92651604,520,1.49E-05
mp-864844,225,0.906315534,12.01080036,Zn2Rh1Au1,0,59.54454759,,4.91796524,-14.39581936,520,1.17E-05
mp-864877,225,1.031027185,14.90187997,Hf2Co1Re1,0,67.09516469,,5.62081336,-41.10294952,520,0.1883923
mp-864878,225,1.347788766,11.49569644,Zr1Al1Au2,0,73.97779426,,6.46140871,-20.99240398,520,4.25E-05
mp-864883,225,1.846826163,8.578164042,Mg1Sn1Pd2,0,68.88550011,,7.05310165,-18.69286409,520,0.0001565
mp-864889,194,4.107645289,7.24511423,Zr2Zn6,0,131.7642738,,3.50595473,-26.97437826,520,2.10E-06
mp-864890,225,0.820516574,14.89805799,Hf2Fe1Ir1,0,67.43804209,,6.48812124,-39.85896414,520,0.9943612
mp-864894,194,0.446471392,5.698119823,Be6Rh2,0,75.73510107,,5.55483165,-40.69177285,520,2.35E-06
mp-864895,225,0.246937929,7.571429304,Be2Ni1Rh1,0,39.39433763,,6.34717672,-22.97688767,520,5.80E-06
mp-864896,225,1.310434351,8.160733817,Zr2Co1Tc1,0,69.05699124,,5.54953435,-36.00485263,520,0.0103644
mp-864897,225,0.434382994,10.20713934,Zr2Cu1Os1,0,70.96669873,,5.78128361,-33.78438894,520,3.09E-05
mp-864898,225,6.944860809,6.596570184,Na2Tl1Bi1,0,115.6293891,,3.31892962,-10.0454561,520,0
mp-864901,194,15.65464612,13.1899613,La2Au6,0,183.756413,,5.9532679,-34.98758868,520,0.0002705
mp-864902,225,1.48952756,10.79248468,Mg1Tl1Rh2,0,66.85235807,,6.69961184,-19.75929338,520,9.80E-06
mp-864903,225,0.460083541,10.98079521,Mg1Ta1Ru2,0,61.60681161,,6.28813476,-33.42335456,520,1.10E-05
mp-864907,225,2.190039879,7.684726373,Mg1Zr1Pd2,0,70.95497193,,4.98156155,-23.30366483,520,3.49E-05
mp-864908,225,1.034999824,12.71355282,Mg1Ti1Ir2,0,59.63809641,,7.91604758,-30.28585111,520,0.000185
mp-864909,225,0.129569231,10.97775628,Hf1Al1Ru2,0.004950807,61.65694117,,6.98363384,-35.2666917,520,3.49E-05
mp-864910,225,1.628025377,8.0243526,Mg1Zr1Rh2,0,66.49727918,,5.76931688,-28.05680681,520,1.75E-05
mp-864915,194,98.88294173,4.3589681,Hf2Br6,0.066893753,318.6262123,,2.10783328,-39.60486896,520,0.0260708
mp-864916,225,1.413710898,13.32236014,Hf2Tc1Rh1,0,69.5365268,,6.54503704,-40.76719533,520,0.0001487
mp-864919,225,1.353325439,7.747608426,Mg1Ti1Rh2,0,59.57988563,,6.52106596,-27.31877463,520,4.10E-06
mp-864920,225,3.230829324,11.00322711,Mg1Zr1Au2,0,76.88487758,,5.11312841,-19.11427183,520,0.0007402
mp-864921,225,0.361781459,12.44637792,Mg1Zr1Ir2,0,66.70278577,,6.95130409,-30.8556707,520,0.0001141
mp-864922,225,0.469047125,11.74197527,Mg1Zn1Au2,0,68.39692095,,4.87250868,-11.11359167,520,8.24E-05
mp-864923,225,0.608321948,8.260677065,Mg1Zn1Pd2,0,60.81858966,,4.71443005,-15.87141951,520,5.39E-05
mp-864927,225,0.824223225,17.51386559,Hf2Re1Os1,0.018904312,69.53733629,,5.93188095,-45.67160365,520,3.30E-05
mp-864928,186,30.20503899,2.40165637,Br2Cl2,0.097670188,159.5189091,,-1.60637453,-6.75527582,520,5.31E-05
mp-864930,225,0.54023391,13.24344066,Li1Ti1Ir2,0,55.07469756,,6.63598622,-30.09125363,520,3.60E-05
mp-864931,194,-55.12211199,5.969548693,Mg4Co8,0,158.1902791,,4.95096936,-63.74052966,520,2.579002975
mp-864932,225,1.388422354,8.535649094,Mg2Ag1Pt1,0,68.39348147,,5.00191243,-14.40145784,520,6.70E-06
mp-864933,225,1.30464329,6.477450922,Mg2Ag1Rh1,0,66.4947933,,4.74508673,-14.90860804,520,1.78E-05
mp-864934,194,1.476777297,7.982944218,Mg2Ag6,0,144.7379457,,3.67049805,-21.50164423,520,1.16E-05
mp-864935,194,2.489830964,14.2724371,Mg2Au6,0.006716648,143.1530476,,5.23149752,-26.05710674,520,1.41E-05
mp-864937,194,2.109829359,2.131588147,Mg6Sc2,0.006239027,183.6464059,,3.42037747,-22.5392565,520,1.90E-05
mp-864938,194,3.779486839,4.917095463,Mg6Tl2,0,187.2913212,,4.83880251,-14.61113349,520,5.67E-05
mp-864939,225,0.544880727,14.64002687,Hf2Cu1Ir1,0.017226654,69.50012333,,6.65331388,-35.15700796,520,9.60E-06
mp-864940,225,1.429211049,9.28612744,Mg2Pt1Rh1,0,61.97868861,,5.5231576,-19.44030567,520,5.62E-05
mp-864943,225,0.6931112,10.2940412,Mn1Be2Ir1,0,42.77627733,,6.50011112,-27.28511593,520,3.0677732
mp-864944,225,0.770408772,10.2147634,Mn1Be2Pt1,0,43.57433542,,6.62792406,-24.60589943,520,3.1728955
mp-864945,225,0.920625426,6.852916457,Mn1Be2Rh1,0,42.61478023,,5.53859814,-25.66060885,520,3.1066067
mp-864946,225,2.375800448,9.577901829,Mn1Cu1Pd2,0,57.44227926,,5.21217658,-24.50779351,520,4.5296017
mp-864947,225,0.915018789,9.827143498,Zr1Sn1Rh2,0,70.25040423,,7.92335182,-30.24840905,520,6.26E-05
mp-864948,225,0.473870894,14.14898503,Mn1Ga1Pt2,0.012369199,60.42085184,,6.5336906,-26.24073028,520,4.1674121
mp-864949,225,0.647609123,9.811161908,Mn1Ga1Rh2,0,55.93238981,,5.86400189,-29.02342745,520,4.1286498
mp-864950,225,0.481609022,13.89339805,Mn1Al1Ir2,0,55.73858382,,8.56955846,-32.93665633,520,3.9937865
mp-864951,225,0.57083666,14.20261394,Mn1Al1Os2,0,54.0604253,,8.04944242,-36.32503884,520,2.1384034
mp-864952,194,2.465972352,3.707253782,Mg6Ag2,0.013752844,161.9514493,,3.8316161,-16.27483297,520,0.00046215
mp-864955,225,2.813418572,7.716185604,Mn2Cr1Co1,0,47.51777379,,6.0365071,-35.24113642,520,4.8567147
mp-864957,225,0.226468994,10.34878392,Mn1Sb1Ru2,0,60.78737064,,9.11086082,-32.34018197,520,4.0243224
mp-864961,225,0.973942164,11.57567016,Be2Pd1Pt1,0,45.83659654,,6.59234709,-21.45811449,520,1.90E-06
mp-864965,225,1.900412924,8.823631585,Mg2Rh1Au1,0,65.58162302,,5.44878371,-16.03454057,520,0.0001006
mp-864966,225,0.496602854,9.103928911,Mn1Si1Ru2,0,52.01327953,,8.79075169,-34.98787243,520,3.0101061
mp-864968,225,0.673834761,9.967824368,Mn1In1Rh2,0,62.56568308,,7.05475651,-27.94859988,520,4.3655759
mp-864969,225,0.651101626,6.884964241,Mg2Pd1Rh1,0,62.2097592,,4.90629361,-18.29952219,520,9.83E-05
mp-864972,225,1.24594459,8.547313727,Mg2Pd1Au1,0,68.3845315,,4.98533177,-14.34153367,520,8.90E-06
mp-864974,225,0.449664888,14.72345995,Hf2Cu1Os1,0.011554577,68.88219109,,6.31817398,-36.94562847,520,1.32E-05
mp-864975,225,0.854456219,9.063498987,Mg2Pd1Pt1,0,64.14498047,,5.49026821,-17.67999949,520,2.60E-06
mp-864976,225,1.115200518,8.746259428,Mg2Ag1Ir1,0.01128031,66.20224308,,5.176689,-16.07121044,520,2.10E-06
mp-864978,225,2.039517297,8.054143722,Mg2Ag1Au1,0,72.87042021,,4.62516387,-11.09014682,520,0.0004238
mp-864983,225,0.998705874,9.37106948,Mn1V1Ru2,0,54.58058769,,7.04255499,-37.43906044,520,4.019617
mp-864985,225,0.661221093,15.17636469,Mn1Zn1Ir2,0,55.23118673,,6.96895763,-28.90886817,520,3.1135924
mp-864987,225,1.32373258,9.761310899,Mn1Zn1Rh2,0,55.48416319,,5.23983669,-26.34687944,520,3.3799208
mp-864988,225,1.049841569,6.653173116,Mn2Al1Cr1,0,47.13525167,,7.47255924,-32.33503289,520,1.0416874
mp-864989,225,0.860123826,10.75937027,Mn2Al1Re1,0,49.85992812,,7.7773956,-35.29065463,520,0.0002385
mp-864990,225,0.805854821,10.37141316,Mn2Al1W1,0,51.34603398,,7.39780389,-35.86632701,520,1.0041268
mp-864991,225,3.651259467,5.868719484,Ca2Ag1Pb1,0,111.8276679,,4.02207531,-12.43108015,520,9.89E-05
mp-864992,225,0.798875466,9.661760161,Mn1Nb1Ru2,0,60.15082049,,6.49759249,-38.45762109,520,4.0835718
mp-864997,225,0.298185755,7.781612472,Li1Si1Pd2,0,52.89289353,,6.25199278,-20.47330424,520,1.56E-05
mp-865000,225,1.068562362,14.56517942,Hf1Sc1Ir2,0.020109816,69.30284182,,7.34806424,-37.91224794,520,8.37E-05
mp-865001,225,1.23354494,14.79074685,Hf1Sc1Os2,0,67.79977737,,5.9086349,-40.99185945,520,3.85E-05
mp-865002,225,1.48925893,6.874143002,Ca1Y1Rh2,0.003238739,80.87406949,,4.43340976,-25.55999307,520,1.37E-05
mp-865003,225,0.649107799,11.81575495,Be2Ir1Pd1,0,44.50232419,,6.49743652,-23.90112697,520,1.61E-05
mp-865010,225,0.308530622,12.05565011,Hf1Ga1Ru2,0,62.03139041,,6.06511227,-33.97720674,520,1.92E-05
mp-865011,225,1.270136506,7.002484748,Mn2Nb1Al1,0,54.48524631,,6.61763275,-33.16909331,520,1.9973861
mp-865014,72,2.914609857,3.373851162,Mg4Cu2,0.009150265,110.401679,,4.31450742,-15.2079417,520,3.04E-05
mp-865015,225,0.550579115,8.891689783,Mn1Si1Rh2,0,53.94037014,,8.23781447,-31.60994602,520,4.7201346
mp-865019,225,0.453592815,11.95377402,Hf1Ga1Rh2,0,63.07000417,,6.48157622,-31.28105084,520,0.0012522
mp-865020,225,0.626206091,14.93961249,Hf1Mg1Ir2,0,65.27054704,,7.21751081,-32.6495789,520,2.37E-05
mp-865023,225,0.569499967,12.05383852,Hf1Tc2Sb1,0,68.36349245,,8.63069173,-36.09822204,520,0.0001385
mp-865025,225,0.969306424,17.86086565,Hf1Ta1Re2,0,68.0408577,,6.12432634,-48.29986923,520,1.70E-05
mp-865027,225,0.641814909,8.236939936,Mn3Ge1,0,47.86994496,,6.59557443,-32.54808749,520,1.0101094
mp-865030,225,1.259724518,10.52002542,Hf1Sc1Ru2,0,67.17683594,,5.9999654,-37.75472516,520,0.0002761
mp-865032,225,2.43711823,11.5012824,Mn2Pt1Rh1,0,58.88706248,,5.9064855,-32.87846598,520,9.0471534
mp-865038,225,0.868869921,13.75279062,Hf1Ta1Tc2,0,67.06466413,,6.58225175,-44.5771551,520,6.07E-05
mp-865041,225,2.067405484,10.32496182,Hf1Sc1Rh2,0,69.03636767,,6.2223329,-34.81032648,520,3.20E-05
mp-865043,225,2.09568227,8.527946152,Mg1In1Pd2,0,68.53330118,,6.52688784,-17.39742857,520,0.0004068
mp-865044,225,0.335480026,13.40154798,Mg1In1Ir2,0.009425247,64.87212069,,8.08849567,-23.05057678,520,1.00E-06
mp-865049,225,1.979113945,9.954599169,Hf1Mg1Pd2,0,69.33259011,,5.29968236,-24.80992322,520,8.40E-05
mp-865050,225,1.40099273,10.44781448,Hf1Mg1Rh2,0,64.94240647,,6.1055386,-29.78439619,520,0.0001868
mp-865051,225,3.628783562,4.075919718,Na1Ca2Tl1,0,125.2880481,,3.10268563,-8.63040922,520,0.0057389
mp-865066,225,1.072854892,12.09739707,Hf1In1Rh2,0,68.51114998,,7.77681945,-30.48611766,520,2.66E-05
mp-865076,225,2.615224502,9.439586671,Na1Cd2Pt1,0,77.91079643,,3.32544704,-10.24017105,520,2.93E-05
mp-865077,225,11.70944885,6.322670002,Na1Cd3,0.00680173,94.60622985,,2.06704058,-4.37423491,520,0.0001192
mp-865079,225,0.864224775,8.930710566,Ti1Zn1Pd2,0,60.63664762,,5.30496685,-21.85314248,520,8.00E-06
mp-865082,225,2.197644927,8.178973224,Na1Ca1Au2,0.000949841,92.78277689,,3.31936531,-12.19603581,520,0.0001001
mp-865088,225,0.405274717,14.96040615,Mn1Ga1Ir2,0,56.50730258,,7.53542076,-31.27462003,520,4.0337437
mp-865092,225,0.331968329,6.797845691,Mg1Ga1Ni2,0,51.64320359,,6.39341755,-17.51628458,520,2.90E-06
mp-865093,225,1.157245427,7.587305103,Ti1Zn1Ni2,0,50.48229632,,6.64677288,-22.32905346,520,1.60E-05
mp-865094,225,0.874451029,11.52784913,Hf1Nb1Tc2,0,67.32651751,,6.4046728,-42.51383018,520,0.0001655
mp-865097,225,1.391764705,10.06581915,Na1Hg1Pd2,0,71.99533926,,3.28332787,-12.68710026,520,3.60E-06
mp-865098,225,1.8535463,9.391350158,Na1La1Au2,0,98.27923616,,5.20310223,-15.30190945,520,6.00E-06
mp-865099,225,2.451847774,8.535276847,Na1La1Hg2,0,109.5463491,,4.2676357,-8.49188543,520,0.0005611
mp-865100,225,4.478391397,8.755476414,Na1In1Hg2,0,102.2229049,,3.5423523,-5.4005566,520,8.46E-05
mp-865101,225,4.988652348,4.737794412,Na1Li2Bi1,0,86.16818074,,2.95744713,-10.97180329,520,0.0012485
mp-865102,225,3.509235424,7.989841288,Na1La1Tl2,0.008884822,118.6013875,,5.95554864,-12.18584804,520,0
mp-865107,225,4.455501165,6.945314506,Na1Mg1Pb2,0,110.3855251,,4.96936697,-10.83625757,520,0.0005513
mp-865110,225,4.986786133,7.12928806,Na1Mg1Tl2,0,106.2248715,,4.4498027,-8.00703746,520,0.0003235
mp-865121,225,3.160217861,8.050623329,Na1Sr1Au2,0.010228541,104.0681151,,2.91718295,-11.82580147,520,0.0001123
mp-865123,225,0.098461959,8.283906781,Mg1Ga1Pd2,0,61.51279917,,5.2825692,-17.85551325,520,2.10E-06
mp-865124,225,5.897126845,3.498042538,Na1Sr2In1,0.011137049,148.6054091,,2.52630422,-8.35861087,520,0.0087833
mp-865126,225,1.584445991,9.851432711,Na1Tl1Pd2,0,74.20149017,,5.0698094,-14.79726584,520,2.38E-05
mp-865127,225,7.887878059,8.199021848,Na1Tl2Cd1,0.012504283,110.2096296,,4.11858604,-7.25393374,520,4.78E-05
mp-865128,225,5.550060329,4.488338312,Na1Sr2Tl1,0.001528073,148.953727,,2.64911401,-7.93039722,520,7.65E-05
mp-865129,127,5.332455714,8.101634083,Lu4Mg2Ge4,0,212.9648347,,3.95118236,-46.94023991,520,0.00013875
mp-865130,225,0.830152283,13.09614165,Hf2Mo1Rh1,0,70.47647824,,5.98350444,-40.20987582,520,0.0003117
mp-865131,225,1.330338292,15.49017375,Hf2Os1Rh1,0,69.6920632,,6.61875564,-41.64330521,520,4.80E-06
mp-865138,225,0.759681621,14.97080736,Hf2Mn1Ir1,0,67.00973458,,6.68108118,-40.48529166,520,0
mp-865139,146,3.202579429,4.213590449,Li1V2Cr1O6,0.075714704,101.2091302,,3.5708773,-73.61623233,520,5.0000029
mp-865144,194,3.07978751,15.57086406,Cd2Au6,0,150.0077172,,4.58539007,-22.49845991,520,3.10E-06
mp-865145,225,7.29017964,8.546839683,Na1Tl2Bi1,0,124.4867646,,4.7112495,-10.63327902,520,0
mp-865146,123,1.405639271,15.63676465,Mg1As1Pt5,0,114.1216021,,6.49865934,-39.94956177,520,2.50E-06
mp-865147,225,0.467846964,7.453362323,Be2Cu1Ru1,0.001310054,40.69055569,,6.37570688,-21.83477177,520,9.00E-07
mp-865150,225,1.710521311,11.65013678,Mg1Cd1Au2,0.009073257,75.63547334,,4.5717722,-10.65949239,520,6.20E-06
mp-865152,225,1.607689902,7.197971614,Mg1Al1Pd2,0,60.93278112,,6.30124123,-19.03378513,520,5.00E-07
mp-865155,225,0.267770316,7.496089699,Mg1Al1Rh2,0,56.95242681,,6.66414458,-23.4437625,520,2.07E-05
mp-865160,225,0.18502885,13.73574428,Mg1Ge1Ir2,0.011923504,58.19478045,,8.25369696,-25.26283768,520,4.70E-06
mp-865163,225,0.502648702,11.27535141,Hf1Be1Rh2,0,57.9238615,,6.0370435,-31.5256127,520,8.90E-06
mp-865164,225,2.676360528,10.79236075,Hf1Cd1Cu2,0.026524791,64.31342603,,5.27987459,-19.47863389,520,1.70E-06
mp-865165,225,1.605257627,9.108181991,Hf1Sc1Co2,0,62.22563436,,5.33807973,-32.09873088,520,1.027482
mp-865167,225,3.305682602,5.64680307,Ca2Cd1Pb1,0,117.558325,,4.05206813,-10.65357338,520,0
mp-865170,225,0.558072757,9.955780878,Ga1Fe1Rh2,0,55.27118096,,6.38806513,-27.92568761,520,4.2533382
mp-865174,225,0.899362697,12.20159006,Hf1Cd1Rh2,0,67.59853949,,5.64543296,-28.28766012,520,2.23E-05
mp-865176,225,2.387209748,10.77803409,Hf1Cu3,0.06623761,56.87043201,,6.16559308,-22.60409758,520,3.05E-05
mp-865178,225,0.821646737,15.42088061,Hf2Ir1Rh1,0,70.21918439,,6.98374285,-39.77977119,520,2.11E-05
mp-865179,225,0.638958081,15.14415466,Hf2Fe1Os1,0,66.12428315,,6.16104215,-41.68033557,520,0.0001181
mp-865183,225,0.894468808,7.248491279,Mg1Ga1Ag2,0,70.96316455,,4.25316913,-10.90680937,520,0.0003082
mp-865184,225,0.797579694,6.810438013,Li1Sc1Pd2,0,64.54885528,,4.10515393,-21.52640273,520,1.10E-05
mp-865185,164,0.273958169,3.955164399,Mg1Be2As2,0,80.68186623,,5.03093881,-20.00711477,520,0.0001971
mp-865186,225,0.328253937,13.69667867,Mg1Ga1Ir2,0,58.00711613,,6.94292057,-24.15415291,520,0.0004719
mp-865187,225,1.003024693,8.317100284,Mg1Fe1Rh2,0,57.09314403,,5.49723052,-25.97584601,520,4.1875018
mp-865191,225,0.514570488,10.09676207,Fe1Ge1Ru2,0,54.37542418,,7.12537661,-32.25298077,520,3.9830524
mp-865200,225,-1.433367902,8.941845607,Mn1Ga2Tc1,0.193850456,54.29696986,,6.10185302,-25.26905433,520,3.0671923
mp-865203,63,6.2951878,5.743123625,Y2Cu2Pb2S6,0,263.6027152,,4.86369305,-66.6120623,520,0.00018395
mp-865212,194,2.563075298,12.87484999,Fe6Re2,0,91.24803806,,6.55371609,-75.72798355,520,0.0077874
mp-865214,225,1.721109952,11.2478901,Lu2Tc1Ag1,0.026117864,82.05372236,,4.04394266,-23.06328696,520,9.80E-06
mp-865223,225,5.538863442,7.735998053,Lu1Mg1Cd2,0,91.03216402,,3.25893262,-9.00564723,520,0.0045794
mp-865226,225,3.749437927,11.1022492,Lu1Mg1Hg2,0,89.80828749,,3.9173916,-8.40567335,520,0.0016828
mp-865228,225,0.229548569,11.57020279,Li1Sc1Pt2,0,63.44452709,,5.14038338,-24.26820479,520,7.80E-06
mp-865231,225,1.36203756,8.447016804,Li1Sc1Tl2,0,90.55856804,,5.78741641,-13.99135765,520,1.64E-05
mp-865232,225,2.831471354,14.25146478,Tl1Pd2Au1,0.001118093,71.56360917,,6.15439054,-16.67737238,520,3.00E-07
mp-865234,225,0.437219613,12.4958964,Ta1Zn1Ru2,0,59.59929203,,5.94029838,-33.04951168,520,2.10E-05