material_id,spacegroup.number,delta_volume,density,full_formula,e_above_hull,structure.lattice.volume,band_gap.optimize_structure_gap,efermi,final_energy,encut,total_magnetization
mp-754540,10,2.796331106,4.613182911,Ca1Pb1I4,0.001107174,271.728675,,1.35235271,-18.73873735,520,0.000467
mp-754549,36,3.11661682,3.732198666,Na4Cu2O4,0.051521637,125.9347159,,3.50299422,-43.82778751,520,1.0006235
mp-754567,166,0.762485369,5.157696904,Na1Cd1O2,0.020767792,53.89489248,,0.77179001,-16.0002792,520,1.0037531
mp-754572,136,0,3.736422773,Ba2Ca4I12,0.048526802,870.0931728,,0.62378561,-59.75877825,520,0.0025853
mp-754587,14,-0.803603841,2.023637174,K4Be4O6,0.036110988,236.6842785,,-0.5726767,-78.36277173,520,0.0001181
mp-754596,227,-6.427436385,4.130703423,Rb2Ga2O4,0,150.5000998,,0.22698766,-41.46132092,520,4.50E-07
mp-754604,9,0.188034694,4.187344176,Ba2Be2P2O8F2,0,206.4569575,,1.15879363,-112.3169444,520,0.0022357
mp-754610,8,-3.325111436,4.27954912,Sr3Ca1I8,0.079712963,511.4742065,,1.94760147,-38.62708988,520,0.0001212
mp-754614,13,-0.604610801,7.585791233,Lu2Nb2O8,0.007400075,145.2939322,,2.17656306,-106.2321036,520,6.70E-06
mp-754624,148,0.406886462,3.679985305,Al4O6,0.065586299,92.0170421,,5.16236496,-74.15711225,520,0.00010815
mp-754628,33,18.32231367,4.889889595,W4N8,0.057719437,287.7699667,,-1.13923513,-121.0186017,520,0.0006882
mp-754629,152,0.232374636,5.76172723,W3N6,0.06866831,183.1694702,,-0.34001585,-90.6654114,520,0.0002587
mp-754638,12,2.898160176,3.39357228,Na4Ti3O8,0.083010713,177.8944667,,,-105.8281617,520,0
mp-754663,14,2.682557825,2.872202661,Na4Be4O6,0.035383957,129.506087,,2.24659786,-79.54995025,520,0.0002513
mp-754665,15,1.144957553,4.914075697,Pb2Br4O12,0,312.9121036,,0.85419038,-76.78642179,520,0.0001882
mp-754671,166,-0.140922967,4.031989678,Y1Sc1O2,0.043842535,68.30819531,,4.40076897,-34.37962212,520,0.0005318
mp-754672,62,0.417521602,2.955996526,Ti4O8,0.032580068,179.4593163,,-0.25145628,-107.2894237,520,0.000127425
mp-754674,88,18.77850846,8.162032937,Lu2Cu4O8,0,148.9460481,,4.43984851,-88.82958773,520,0.8918486
mp-754698,12,-2.750818453,4.812196688,Nb4O8,0.09920488,172.403533,,3.95149148,-108.0817038,520,0.842197625
mp-754701,148,0.603307947,3.612902695,Ca2Ti2O6,0.028904361,124.962674,,2.13386554,-80.63881966,520,1.00E-06
mp-754710,162,-1.421601302,3.92041397,Sr2Ca1I6,0.040662555,413.7121534,,0.78323625,-29.35198697,520,7.17E-05
mp-754727,13,-0.603986549,3.681498264,Li2Ni2S4,0.093601691,117.0604122,,5.54052386,-36.82955268,520,0.00672745
mp-754741,62,1.312862892,5.022661922,Zr4O8,0.085381632,162.9544438,,1.9117742,-113.0300494,520,2.98E-06
mp-754745,12,4.054406349,4.670592794,Na4Sn2O6,0.000515133,151.2340334,,2.94407045,-63.73572151,520,7.70E-06
mp-754759,167,0.036527595,5.0094632,Y4O6,0.050667028,149.7031277,,1.46304494,-90.6257896,520,0.00017745
mp-754779,12,0.006931519,3.32920146,Li4Nb2S6,0.082314885,202.4880928,,4.32949073,-66.14411242,520,0.6526614
mp-754781,166,-2.497922067,6.059321332,Ga6N2O6,0.048212704,148.6288061,,3.25632576,-84.31182813,520,2.25E-06
mp-754782,12,4.133780719,4.28213558,Na4Cd2O6,0.055917231,160.0680555,,0.46174362,-47.83684506,520,2.0042624
mp-754798,64,0.498638109,8.454077348,Bi4Se2O12,0.095946353,232.9200734,,5.03233102,-97.69076022,520,3.84E-05
mp-754801,12,-0.109347406,3.465798035,Li3Ti6O13,0.068761478,247.2350372,,4.00871464,-179.1376859,520,0.001729
mp-754812,12,0.184474812,2.96729999,Al4O6,0.052899779,114.1176706,,3.25674616,-74.28397745,520,0.0001149
mp-754815,12,13.19196725,3.481606453,Y2Br6,0,313.4660832,,-1.62504356,-38.07605319,520,5.30E-06
mp-754824,194,0.236675224,4.114690238,Sr2O2,0.05116039,83.63402785,,0.6869966,-24.00457132,520,2.90E-06
mp-754826,227,-0.730961092,3.704455622,Cs2Sc2O4,0,188.1415413,,0.83025332,-55.33382565,520,6.20E-06
mp-754839,119,0.062863907,6.735867072,Sn1Bi1O4,0.088039239,96.5596869,,3.89168146,-35.10763057,520,9.26E-05
mp-754840,7,-0.16395545,6.620652365,Ta2As2O8,0.054823345,160.4530021,,2.5344853,-97.92509438,520,0.0002894
mp-754844,12,-30.30093055,6.726153849,Na4Ir2O6,0,141.3103378,,4.16126649,-67.05029047,520,1.02852645
mp-754845,71,-3.664122505,6.327241754,La3Ti2N3O4,0.06074511,162.3125023,,,-105.2400543,520,0
mp-754869,4,0.156624715,4.057018089,Sr2I4O12,0.025765136,358.0767146,,0.62477453,-87.77793435,520,0.0001918
mp-754870,12,0.84345848,4.890429902,Li4Rh2O6,0,111.9055353,,2.91634176,-68.96249073,520,1.0332044
mp-754878,7,-9.732279548,4.956188882,Cu6O2F10,0.021323514,202.1179712,,1.4335734,-76.21557714,520,0.19983525
mp-754912,156,0.66762158,4.380980254,Li1Cu1O2,0.112096007,38.84556927,,2.67932743,-19.8503008,520,1.9953145
mp-754937,8,-0.095318672,3.882113125,Li1Ti3O6,0.029645499,105.4545875,,5.2406756,-84.08505267,520,1.0419052
mp-754940,221,0,4.746343939,Ba3Si1O1,0.051063361,159.5575966,,3.21814009,-21.84785791,520,0.0001128
mp-754954,19,-0.101557937,7.259398531,Ag8Se4,0.004295582,269.639351,,2.34810276,-37.39274088,520,0.000283225
mp-754955,62,0.726061654,9.717446637,Lu4Si4Ru4,0,207.8765351,,6.21472408,-87.3938164,520,0.00095245
mp-754978,59,0.134508412,6.556297648,Cd2Cu4O6,0.044200848,145.6330973,,3.69050854,-56.25238498,520,5.89E-05
mp-754988,164,1.814891766,3.849794376,K1V1O2,0.068907691,52.63913859,,3.46835759,-25.64201252,520,2.0000087
mp-755000,186,-0.553587259,3.859587968,Li2Ti2O4,0.052253469,74.69506151,,5.99261488,-60.06205438,520,0.00074805
mp-755003,148,0.87124071,7.438530417,La2Bi2O6,0.040339401,176.7502226,,5.02713443,-70.49228094,520,6.55E-06
mp-755004,194,-0.378419911,6.598949435,Cs2In2O4,0.057100759,140.7768689,,4.00626811,-38.21213729,520,0.00231115
mp-755010,166,1.477554347,6.223821824,K1Yb1O2,0.139458285,65.13669529,,-0.04596102,-20.43630378,520,1.000748
mp-755013,12,1.045580168,4.429785026,Li5Ta1O5,0,110.8266349,,0.71831651,-71.89501453,520,8.56E-05
mp-755021,167,0.537512503,7.151499211,Re2O6,0.004501644,108.7623354,,1.92135711,-67.4886186,520,0.00024955
mp-755032,2,-1.00170035,5.067424202,Cu3Te2O10,0.046830448,198.5244668,,,-77.31321702,520,3.0000001
mp-755053,12,-2.557310101,5.118665149,Ga4Si1O8,0.068241204,141.1088885,,2.68725152,-83.21583522,520,0.0003588
mp-755056,65,-1.740480677,4.58820436,Ca1Pb1I4,0.050596772,273.2079876,,1.33412442,-18.44179976,520,0.0002095
mp-755060,58,-1.388448551,4.25816108,Cs4O2,0.070742547,219.7930057,,2.09463039,-18.80655316,520,0.0001392
mp-755071,141,0.021560708,5.872141096,Sn2O4,0.056953353,85.2356379,,3.67348069,-37.3591553,520,2.71E-05
mp-755072,58,2.144161006,2.020219305,Na4O2,0.036536092,101.8883909,,0.22969022,-22.22399845,520,4.54E-05
mp-755082,166,-0.917336532,4.747656302,Sr3As2O8,0,189.1145325,,1.54236772,-83.55711354,520,0.0002038
mp-755089,62,0.541880913,5.504000291,Zr4O8,0.023485431,148.7036767,,2.26276461,-113.7728038,520,5.60E-06
mp-755127,70,-2.38427803,6.176991866,Ag4Ge2O8,0.072482594,189.4549309,,1.55811889,-69.65928,520,0.00088835
mp-755144,194,1.572867081,2.318425979,Na2Li2O2,0.0709428,65.7936375,,0.79821706,-25.05967889,520,1.48E-05
mp-755169,157,-0.875791811,9.300608721,Tl6S1,0.092619013,224.6695823,,5.17877525,-18.71449858,520,0.0019697
mp-755185,2,0.373603775,3.642553874,Li2Sb2P2H2O10,0.07596745,219.4383694,,,-111.1893663,520,0
mp-755198,12,6.262237443,4.613541686,Cs6La2O6,0.036695943,421.5611265,,2.17269781,-70.76172594,520,0.0001235
mp-755210,12,1.008898089,5.581589005,Y4Cu2O7,0.103531496,176.9283199,,4.3467443,-104.1661188,520,1.17E-05
mp-755225,148,0.76490872,2.909912804,Li8Zr1O6,0.000585914,138.5241491,,0.51468671,-86.32416801,520,5.10E-06
mp-755239,227,-0.025149307,7.779377148,Ga4Hg2O8,0.03219457,172.4851626,,1.7830611,-71.5667196,520,0.0001005
mp-755243,123,1.618052519,2.330040283,Li5Cu1S1O2,0.05470692,115.6761384,,1.20718317,-40.61497917,520,0.000561
mp-755245,63,1.816267544,3.886917903,Li2Cu2P2O8,0.071595009,141.3716865,,3.44178127,-87.14943443,520,1.00930485
mp-755255,4,-5.851514276,4.839690616,Cu6O2F10,0.024244922,206.9832395,,1.16045781,-76.16299179,520,1.89293625
mp-755256,5,0.28570678,5.267159881,Li1Bi1B2O5,0.080648504,100.1086435,,2.4249298,-62.14078311,520,1.01E-05
mp-755263,164,0.405688219,3.360890995,Cr1S2,0,57.37523855,,3.84808489,-19.49345883,520,2.0267803
mp-755264,187,4.578148336,5.401569403,Ti1O1,0.09865398,19.63367359,,9.01368837,-17.77443492,520,7.71E-05
mp-755266,12,0.843924248,3.361448232,Li4Ti3O8,0.058455986,147.8824795,,1.81566418,-110.8169882,520,0
mp-755287,65,0.101179694,4.397996851,Ca3Cd1O4,0,112.0024945,,2.11549591,-46.6690989,520,3.98E-05
mp-755293,139,-0.122514851,4.634546783,Sr4Sb2O1,0,218.5602747,,3.22574206,-31.00206439,520,0.0001395
mp-755300,221,-0.078747406,4.661597248,Ti3O3,0.113229755,68.25084509,,6.14861948,-53.23585011,520,0.000209067
mp-755302,119,-0.39634924,4.416739466,Ti1Nb1O4,0.058611357,76.98670233,,4.47838297,-53.98349537,520,0.6921947
mp-755309,215,0,1.765915991,Li3Nb1S4,0.007561808,227.5492237,,-1.33160893,-41.48117488,520,0.0007452
mp-755313,167,-0.013910239,3.823625265,Sc4O6,0.038837663,119.7842168,,2.3612038,-90.19255597,520,4.50E-07
mp-755318,194,0.202465038,3.155394696,Sc2H2O4,0.053686691,82.05631294,,1.56753828,-59.75032616,520,2.19E-05
mp-755328,70,16.12528859,7.851906494,Zr2Sn4,0,139.0047609,,7.81592844,-35.67731376,520,6.30E-05
mp-755333,12,0.097258716,8.083393345,Hg1O2,0.409689725,47.77978334,,1.21140274,-9.94701562,520,5.02E-05
mp-755342,194,-1.146873914,8.01962578,Lu2Ga2O6,0.021008459,121.2076962,,2.135221,-72.64286057,520,4.72E-05
mp-755350,11,0.064066414,4.460377492,Ba2La2I10,0.026402627,678.1237405,,1.35544444,-51.73938191,520,4.16E-05
mp-755352,15,0.284927285,6.523326559,Li4Hf2O6,0,122.3744044,,1.47220696,-91.12598251,520,1.93E-05
mp-755358,194,0.345600824,7.273859437,Lu2Al2O6,0.061476017,114.1199719,,3.58899338,-79.53412263,520,0.00019645
mp-755378,12,0.957910648,5.521320293,Na1Pd1O2,0.108663707,48.54368456,,3.19492403,-19.72415602,520,0.9533421
mp-755382,148,-0.362607894,7.545557386,Bi2Sb2O6,0.086333552,166.6968255,,5.17028511,-57.77516309,520,6.69E-05
mp-755392,33,-1.733902611,3.353620366,Li4Sn4P4O16,0.073398939,436.9630491,,1.45249427,-180.5785573,520,0.00082195
mp-755399,10,0.354191812,5.225935103,Li2Cu1Sn1O4,0.068652135,82.65799536,,5.07212512,-43.64518165,520,1.0048573
mp-755403,15,0.933332462,4.412197473,Ba4Sc4O10,0.090395963,334.6241547,,1.1455262,-137.1170444,520,0.00033255
mp-755413,166,3.85982697,2.080761796,Na4O2,0.079004793,98.92381466,,0.36471812,-21.96918624,520,0.0002282
mp-755421,225,-0.353229015,4.101599342,Ca6Hf1O8,0.00230987,221.434876,,1.62495851,-108.2079201,520,5.82E-05
mp-755455,10,0.600455744,5.072751338,Cu1Te1O4,0.01410093,83.51994418,,3.52717513,-31.53950095,520,0.0315686
mp-755457,14,-5.972454384,2.940952988,Li4Fe4S6,0.239056894,250.4309064,,3.14494158,-75.03711048,520,7.78496625
mp-755459,14,13.0424864,3.343797015,Rb4O2,0.01817422,185.6648978,,0.72783446,-19.13254322,520,2.75E-06
mp-755463,148,2.529875719,2.766790569,Li6Sb2S6,0.038010797,286.6138083,,2.76004677,-57.37093839,520,0.00051645
mp-755470,44,-0.936702277,4.34649482,Li2Bi1S2,0.101558602,109.6428511,,3.19031503,-20.10983231,520,0.0003497
mp-755478,146,-1.329103641,8.052207723,Cd2Bi2O6,0,152.3522176,,3.18040984,-49.61013443,520,1.94E-05
mp-755480,129,-2.023430794,3.021285153,K2Rb2O2,0.093866322,154.5133866,,0.57417931,-19.28278254,520,2.02E-05
mp-755481,15,0.239332363,2.596373597,Ca2Cl4O12,0.028334251,264.7531427,,0.77345179,-83.44986793,520,0.0005116
mp-755487,36,0.822669045,5.524416664,Li4Bi2O6,0.090899824,162.831527,,2.36476301,-62.31036114,520,0.00019235
mp-755505,8,0.809589772,3.540238231,Li2Nb1O1F5,0.012854118,102.1490165,,-1.38892481,-54.77665454,520,4.82E-05
mp-755541,12,0.2041753,4.522757118,Cs6Y2O6,0.010375568,393.3081398,,1.17557336,-74.44538611,520,2.15E-05
mp-755549,136,0.462674832,5.262191582,Y4Te2O12,0.067061697,253.3369645,,2.93093,-136.1425123,520,0.00069775
mp-755552,123,0,3.243141741,Li1Y1S2,0.075583577,81.91063669,,2.92490822,-23.73764491,520,3.00E-06
mp-755556,225,0.83750725,5.341649443,Ba6Zr1O8,0.04797968,324.2899271,,1.32358043,-100.0334113,520,0.000287
mp-755558,227,-0.4790166,5.425686291,Ba2La4O8,0,293.2802329,,3.0345509,-107.8162529,520,2.00E-06
mp-755559,12,-2.300588979,3.927630751,Li2Nb2O6,0.046621721,125.0134613,,0.07900955,-78.11551516,520,5.90E-06
mp-755568,161,-0.245760381,8.67655626,Ga2Bi2O6,0.050380002,125.0497882,,4.76447829,-58.53814818,520,5.29E-05
mp-755570,164,-0.51007104,4.463449308,Li1Ni2S2,0.069663832,70.11203953,,6.10980123,-24.68807059,520,0.0082267
mp-755573,62,0.028462234,4.826637931,Cs8O4,0.090227062,387.8119867,,2.1802786,-37.37929213,520,0.000106425
mp-755585,194,0.452868463,5.334014683,Li2Ag2O4,0.284786859,91.40597838,,1.81540472,-34.0150637,520,0.0001297
mp-755594,65,1.27895265,7.649349345,Zn1Re1O4,0.147739773,68.5141547,,3.06431896,-41.97648061,520,0.9948476
mp-755598,2,0.665617934,5.955075455,Ag4Te2O8,0.088220153,227.1655546,,,-63.98041146,520,0
mp-755610,225,0.187472441,5.824829466,Ba6Hf1O8,0.063793783,322.2672388,,1.42867287,-101.945961,520,0.0004319
mp-755613,63,4.274984285,2.178139041,Li2Ti2O8F6,0.17996699,268.0491026,,-1.93857251,-105.7215878,520,1.9991772
mp-755615,6,0.111750687,3.770844701,Li3Ti4O8,0.061458522,149.8493215,,5.69491026,-117.0196158,520,3.0091927
mp-755634,227,0.891041306,6.402263426,Y4Hg2O8,0.083977907,229.4879983,,0.86033622,-101.6172229,520,3.68E-05
mp-755641,26,1.895039517,3.170014451,Li2Cu2C2O6F2,0.112858013,156.6182934,,1.4804828,-84.36277254,520,0.913556
mp-755643,12,-6.27639081,4.260650399,Rb6In2O6,0.00876653,326.7719465,,0.9060374,-59.80834942,520,1.63E-05
mp-755667,38,-0.170532288,6.502178634,Ba4Bi3O11,0.050501097,345.3383482,,2.44665712,-105.2643285,520,0.0012136
mp-755684,136,0,3.749466678,Sr2Ca4I12,0.03828977,823.0384165,,0.83028861,-58.9705001,520,0.0020279
mp-755703,15,2.612818004,4.163917474,Li2Sb2O4,0.033386978,128.1717485,,2.6798968,-44.77997367,520,3.31E-05
mp-755705,11,7.795578028,4.33428133,Sr2La2I10,0.027997881,659.7649813,,1.42784239,-50.72659252,520,5.42E-05
mp-755738,62,-6.651755529,4.072346891,Rb8O4,0.031839245,304.8982553,,1.08283365,-38.10110614,520,0.00033715
mp-755759,62,0.67328733,5.816220953,Zr4O8,0.035823852,140.721112,,3.11856056,-113.6247427,520,0.00065855
mp-755769,12,-12.31444814,4.43190465,Zr4O8,0.05266074,184.6756969,,0.21186932,-113.4227001,520,4.15E-05
mp-755776,2,-6.312198321,3.852050156,Rb8Si2O8,0.01262363,374.1374217,,1.08686077,-93.00424031,520,0.00019555
mp-755789,14,2.258133848,1.891965557,Na4Be4O6,0.095868467,196.603858,,-0.38775263,-78.70316711,520,0.00016575
mp-755794,12,-1.178615349,4.679354925,Rb6Lu2O6,0.009533063,340.2222262,,0.12543346,-72.06965419,520,8.84E-05
mp-755796,14,-6.285050545,2.664569458,Li4Fe2S4,0.267875668,166.8372904,,3.32678785,-48.47584295,520,3.32422265
mp-755797,148,-0.911684945,4.040539318,Li1Ti8O13,0.059607722,245.7060975,,5.98409725,-191.4146618,520,0.0132823
mp-755831,148,1.482239728,2.891808508,Br6Cl6O6,0.135991215,452.566129,,-0.11992648,-47.38019285,520,0.0003091
mp-755835,4,0.401245691,5.940716912,Li2Bi2B4O10,0.102236501,177.5167,,3.79130678,-123.8929823,520,0.00130635
mp-755840,15,-1.306823677,5.500875427,Nb4Sb2O12,0.083901381,243.6493443,,5.44216842,-147.1428113,520,0.99612375
mp-755853,136,0.50301727,8.745452088,Hg2Bi4O12,0.009270587,271.3486986,,2.63318799,-87.1017722,520,0.00270575
mp-755856,55,0.275739811,4.921861394,Mg4Sn2O8,0.070232195,156.0839994,,4.68888836,-84.91446812,520,5.01E-05
mp-755868,1,-1.039056195,4.759687363,Li1Cu5P2O8,0.107689815,179.5361993,,4.92961392,-93.36922097,520,0.0017966
mp-755875,65,-0.400833618,4.71289795,Ti3O4,0.055227076,73.14513992,,7.27499409,-62.67336008,520,0.0003178
mp-755894,62,1.32198458,2.067561435,Li8O4,0.085444592,95.99566025,,0.43604461,-56.02957766,520,1.37E-05
mp-755902,176,-0.270957066,6.456133922,Lu2H6O6,0.053653316,116.2502497,,1.12331864,-86.40826052,520,0.0001748
mp-755924,64,1.983988584,5.604140405,Y4Cu2O8,0.034431011,180.9570639,,3.46276937,-111.1290485,520,0.00078735
mp-755950,55,0.881238051,5.10584894,Ba4Sc4O10,0,289.1640288,,2.17907078,-138.7441717,520,0.00203895
mp-755954,14,2.313516622,3.998493421,Ba2Sr4I12,0.050429441,892.0403156,,0.52276467,-59.2768987,520,0.0004377
mp-755988,227,0.213319225,10.5213482,Hf6N8,0.015828923,186.7067813,,4.16073027,-149.5045254,520,5.93E-05
mp-755999,14,-1.067199186,2.996513957,Rb4Be4O6,0.011541034,262.6240277,,-0.42018484,-77.56414386,520,0.0008842
mp-756018,152,0.636967586,4.561617715,Ba3Mg3O6,0.03779058,211.4588658,,1.31208596,-70.93207272,520,7.96E-05
mp-756035,6,-0.489542612,3.732863485,Li1Ti4O8,0.046684605,145.1986977,,4.77541215,-110.6947039,520,1.0635526
mp-756094,164,-7.468858332,3.651726746,Li1Fe1S2,0.115794106,57.71214207,,5.14157356,-21.44241518,520,0.9992086
mp-756095,8,0.770185599,4.440546724,Na1Cu3O4,0.063028834,103.8177938,,,-39.30003293,520,2.30E-06
mp-756134,129,0.797159152,6.72270909,Zr2Se2O2,0.051361234,91.97625545,,5.81411451,-47.7316044,520,3.30E-06
mp-756156,36,-3.453176078,4.222206394,Rb4Zr2O6,0,243.962084,,0.29002822,-79.58849351,520,0.0001863
mp-756163,5,-0.721527,4.533566118,Li4Cu8S6,0.031409278,266.8405381,,5.44222667,-74.40491634,520,0.0017441
mp-756182,62,-0.26258295,3.117549607,Rb4H4O4,0.051002083,218.3304095,,-0.86738249,-52.0636668,520,0.00042025
mp-756187,132,0.047676316,2.345764643,Li4Fe2S4,0.122865401,189.5115735,,2.10585063,-49.92594562,520,3.9999515
mp-756214,167,0.004702416,5.229988044,Y2Al2O6,0.045645581,104.0684666,,4.82654805,-82.9269995,520,2.92E-05
mp-756229,227,1.519646095,5.112394255,Na2Sn4O8,0.090633672,210.7392641,,6.47556573,-79.83858973,520,2.01E-05
mp-756245,15,0,5.177141996,Ba2Y2I10,0.09829056,552.1647328,,3.11268204,-52.91692588,520,0.0002798
mp-756294,37,-1.673325767,2.456811851,Li4Ti4O10,0.027627805,256.3157523,,-0.90307169,-138.1179134,520,0.00048035
mp-756297,227,-1.817445931,6.423867882,Zn2In4O8,0.029411926,185.6215804,,3.63488234,-74.33106527,520,8.17E-05
mp-756299,63,1.16436026,4.541896969,Li8Hf2O8,0.056702394,197.6105295,,0.06281716,-118.9467792,520,1.36E-05
mp-756317,227,0,6.737777137,Al4Hg2O8,0.085337003,157.0149398,,4.05425053,-85.27871096,520,0.00010395
mp-756334,14,1.310301177,3.121879074,K4Sr4O6,0.055346176,320.6685727,,0.2834939,-68.09395169,520,6.21E-05
mp-756344,63,1.007022689,3.032240458,Li8Zr2O8,0.036796283,200.4159873,,0.01442683,-114.9486676,520,2.52E-05
mp-756350,8,-2.106944363,4.903104557,Ti3Nb3O12,0.046407695,208.0499422,,4.96940104,-162.170152,520,0.3203125
mp-756354,63,0.431086319,4.43690054,Sr2Sc4O8,0.026076086,180.7879326,,2.60100328,-114.7640771,520,0.0002053
mp-756361,198,0.932354089,6.060150155,Zr4Se4O4,0.036246915,204.0641215,,4.09986375,-95.64458063,520,6.23E-05
mp-756389,136,1.039855495,7.972829969,Lu4Te2O12,0.041677746,238.9037828,,2.86771351,-129.847722,520,7.81E-05
mp-756392,4,6.473899708,3.178947331,Li2Cu2Si4O10,0.097126336,215.8945459,,3.9807482,-123.2335388,520,0.00031735
mp-756394,15,1.044678129,2.787713321,Li4V4S10,0.090411437,328.9134647,,3.68764571,-102.2106849,520,1.9998752
mp-756406,15,2.212919744,4.330901292,Li4Zr4O10,0.083156776,211.8966655,,1.49750147,-142.3076319,520,2.63E-05
mp-756426,15,-0.037188022,5.859582775,Zr2Nb2O8,0.10342415,140.6332886,,6.11185404,-110.4223059,520,1.0058609
mp-756432,3,0.430153424,4.783025007,Li2Ti1Te3O12,0.024047453,220.9903791,,2.83335884,-106.7135427,520,0.002582
mp-756436,194,3.164149789,5.538628719,Fe2O2,0.085273842,43.07941083,,4.37023182,-26.29347348,520,4.00000085
mp-756437,11,-0.428865767,3.818712532,Sr2La2Br10,0.043841256,544.4625303,,-0.3812673,-58.07865083,520,4.08E-05
mp-756439,11,4.914503644,4.244022792,Sr2La2Br10,0.053332264,489.899793,,0.58732148,-57.94577672,520,8.85E-06
mp-756468,63,0.401225635,4.611768943,Ca2Y4O8,0.075844369,202.9958015,,2.10884987,-115.827605,520,3.05E-05
mp-756477,6,1.224141919,4.31384442,Li2Te2H2O8,0.068312692,153.6239084,,2.14471524,-72.88280641,520,0.0009534
mp-756500,15,4.486756977,3.881162646,Sr4Ca2I12,0.062087209,835.7922889,,0.76303742,-58.31833018,520,9.11E-05
mp-756505,12,3.718468857,4.497805419,Cs6Sc2O6,0.005325459,363.0383844,,1.40255632,-75.31471743,520,0.000173
mp-756509,15,1.978924446,3.743198059,Ba2La2I10,0.06933754,808.0491123,,0.19432617,-51.13829312,520,0.0001707