material_id,spacegroup.number,delta_volume,density,full_formula,e_above_hull,structure.lattice.volume,band_gap.optimize_structure_gap,efermi,final_energy,encut,total_magnetization
mp-2213,123,-0.956127306,8.452470347,Fe2Ni2,0,45.00352606,,6.60088277,-28.75229488,520,1.62367095
mp-2222,221,0.436015177,11.47903316,Mn1Hg1,0.33876368,36.96428861,,4.31377303,-8.78541235,520,3.9400078
mp-2225,194,-27.94773142,4.73972844,Be8Fe4,0,103.5189795,,4.84842583,-67.10083037,520,5.06E-05
mp-2229,225,1.752947809,6.619791278,Zn1O1,0.146477888,20.42085932,,2.34584404,-8.8076476,520,4.00E-07
mp-2231,62,21.86461566,4.900134274,Sn4S4,0,204.3762556,,5.5130487,-36.09989998,520,6.84E-05
mp-2232,64,57.43281705,1.175670433,C2S4,0.223565281,215.0851146,,-2.13157675,-33.34698909,520,0
mp-2237,136,1.842901171,5.965442882,Te2O4,0.221727484,88.85175615,,6.3878966,-30.94337495,520,2.50E-07
mp-2242,62,13.15111961,3.95453504,Ge4S4,0,175.8656716,,3.30132256,-37.04534909,520,9.75E-06
mp-2243,187,0.604244041,6.545345961,Nb1S1,0.089798593,31.70494831,,8.3943958,-16.00594215,520,0.0001401
mp-2247,72,-12.9279189,4.195079138,Ag2N6,0.338731902,118.6606334,,1.28547395,-50.66844819,520,0
mp-2250,227,1.566664083,8.190259687,Zr2Ni4,0.046627785,84.58983984,,6.72961057,-42.66824062,520,0.00220295
mp-2251,191,-0.428824917,1.28860901,Li3N1,0,44.88256418,,0.24571993,-15.5190031,520,0
mp-2252,191,0.033196013,3.660545166,Sc1B2,0,30.20184619,,6.07590534,-22.2107528,520,2.91E-05
mp-2258,221,2.270868412,11.97462167,Cu3Au1,0,53.74971641,,6.39059592,-15.71151098,520,2.76E-05
mp-2260,123,0.762150597,14.81462615,Fe1Pt1,0,28.12608274,,6.28455039,-14.99577341,520,0.0004719
mp-2263,227,2.75629902,14.00544761,Sc2Ir4,0.004858593,101.8201963,,7.35553662,-52.57961725,520,1.50E-06
mp-2271,227,4.691069579,12.55168615,Na2Pt4,0,109.3183175,,4.02405397,-29.07653228,520,6.00E-07
mp-2273,25,6.307579941,9.121195091,Ag3Sb1,0.071387816,81.07986925,,5.03467205,-12.33741543,520,3.40E-06
mp-2278,12,-1.298815633,7.979339344,Hg1O2,0.401579035,48.40285217,,1.41835539,-9.97134769,520,1.50E-06
mp-2280,205,4.501458112,6.296868697,Cu4Se8,0.007898016,233.6100413,,4.84067721,-45.25461759,520,0.000316375
mp-2282,205,-7.523632814,4.629996689,Ni4S8,0.011440709,176.2014657,,7.86791778,-59.06008117,520,0.00111795
mp-2283,221,-1.02443337,7.64962606,Zr1Co1,0,32.59530368,,5.10444976,-16.23024211,520,0.7788532
mp-2284,61,16.66700706,5.315183748,Ag4F8,0.008359568,182.2812149,,-1.09344694,-40.04980938,520,0.00010425
mp-2285,164,0.870597511,9.731599526,Te2Ir1,0.031253967,76.34442763,,7.16121169,-15.92897346,520,0.0002585
mp-2286,225,0.400451681,2.826921615,Li2Se1,0,54.53556431,,0.3846135,-11.09524385,520,0
mp-2287,14,4.034626867,8.028791039,Si4Rh4,0.017358396,108.3678319,,9.3610757,-57.54159142,520,5.00E-08
mp-2291,225,0.907608887,4.751230924,Si2Ni1,0,40.14471692,,9.78840409,-17.68008833,520,6.60E-06
mp-2293,216,1.179516087,4.228941371,Mn1Se1,0.004004087,52.57649884,,2.67451304,-13.36126791,520,4.9999351
mp-2294,194,3.748800372,7.266573069,Al6Ir2,0,124.8444137,,9.01918747,-45.46674637,520,1.68E-05
mp-2295,227,-2.470305557,5.661731824,Ca2Ni4,0,92.36624268,,5.71236427,-28.26364756,520,0.0001682
mp-2301,204,0.771609558,4.205088684,Ni4P12,0,239.4832776,,8.28096762,-92.83990467,520,5.25E-07
mp-2302,225,1.959433422,9.77548359,As1Rh2,0,47.6874047,,6.37782592,-20.76809401,520,5.87E-05
mp-2305,187,0.562894155,8.538700082,Mo1C1,0.002307947,20.99340064,,8.66014001,-20.2376051,520,1.93E-05
mp-2306,225,-0.131670114,3.325810933,La1Mg3,0.008969846,105.7595176,,4.87075798,-10.26575797,520,0.0001427
mp-2310,205,10.3442986,6.075566231,Cd4O8,0.064432954,157.8770449,,1.94249167,-49.69941551,520,0.000155175
mp-2311,221,2.663269075,7.010467002,Nb3O3,0,77.3881252,,5.98416002,-56.80615397,520,0.000136167
mp-2313,123,1.130211971,4.893725904,Mg1In1,0,47.2072154,,6.03392642,-4.50938175,520,0.0002581
mp-2317,191,-28.60704434,8.386051435,La1Ni5,0,85.61494904,,8.17495706,-35.53534166,520,1.3429247
mp-2318,164,0.830650344,7.645161618,Nb2C1,0.016991592,42.96751262,,5.52474979,-30.78025834,520,2.20E-05
mp-2319,58,1.890996674,9.334691978,P4Os2,0,89.71921615,,7.97915398,-47.22514018,520,1.23E-05
mp-2322,227,-11.54494915,3.879201025,Y2Al4,0,122.3135536,,5.85664405,-31.20350458,520,0.00054035
mp-2323,221,-0.321600531,6.201944864,Be1Cu1,0.01129559,19.4270824,,6.41732263,-8.02401381,520,3.12E-05
mp-2330,11,7.576671761,6.756629197,Nb4Se6,0.017017768,207.76568,,4.99113785,-69.76865453,520,7.50E-07
mp-2331,166,-5.739526692,7.035994871,B4Mo2,0,55.49074273,,8.92581517,-51.03109087,520,3.50E-07
mp-2337,227,-1.35954636,12.08938854,Hf2Co4,0,81.41211671,,5.62289197,-50.55662738,520,0.00018235
mp-2339,223,0.812260826,8.766699072,Ti6Pt2,0,128.3036318,,6.52684543,-64.69271036,520,0.00017045
mp-2340,189,4.72967224,2.524002945,Na6O6,0,153.9056154,,1.77286624,-50.43987328,520,0.000111
mp-2341,194,-1.648316522,1.655734759,Li6N2,0.00967444,69.86152377,,1.37985869,-30.96061068,520,0
mp-2343,225,0.231361281,3.508688859,Mg2Sn1,0,79.18667152,,4.54039829,-7.77285973,520,4.22E-05
mp-2347,194,3.746703974,7.27951708,Ni2As2,0.340817244,60.95814362,,6.72794009,-20.66242634,520,0.0003586
mp-2349,63,7.573314756,7.346117257,Y2Cd6,0,192.6514844,,2.87792095,-20.82103048,520,1.64E-05
mp-2350,225,9.083224457,5.598982461,La1S1,0,50.7062028,,8.81387646,-13.39843887,520,0.0011599
mp-2352,225,0.818657242,2.350350052,Na2O1,0,43.78856122,,0.64271933,-11.2216075,520,4.83E-05
mp-2354,223,0.750789453,8.13860643,Ti6Hg2,0,140.4522009,,5.54490345,-48.78921375,520,0.0035769
mp-2355,191,-8.000706953,7.401694338,Mo2N2,1.866044388,49.33216081,,7.67212663,-32.3746898,520,1.15E-06
mp-2361,193,5.932726576,9.934061871,Hf10Al6,0.048766505,325.4176956,,5.118556,-126.7095583,520,0.0005114
mp-2363,227,1.289133437,11.27480486,Hf2Mo4,0,109.095253,,6.52746893,-64.32488711,520,1.30E-06
mp-2369,62,-21.23722316,9.344016469,Sn4Pd4,0,160.0327462,,7.63205162,-41.05824644,520,2.28E-06
mp-2371,87,20.28840322,5.500923887,Ga2Te5,0,234.6841115,,3.63400818,-23.4372782,520,0.0001942
mp-2377,223,2.409655941,9.633796385,Ga2Mo6,0,123.2565203,,7.62933712,-72.44300133,520,6.00E-06
mp-2379,225,-6.651878082,4.970685453,Co1Si2,0,38.45244509,,8.69509395,-19.37401108,520,9.54E-05
mp-2384,225,0.334579872,5.093162623,La1P1,0,55.386234,,6.38499101,-13.49189604,520,7.00E-07
mp-2385,227,-0.855320476,11.33718773,Ta2Cr4,0,83.4693997,,6.47139056,-62.99867502,520,7.30E-06
mp-2388,225,8.644090452,6.910252976,Cd1Te1,0.179010025,57.67482564,,3.75994169,-4.62417494,520,4.40E-06
mp-2390,225,6.010736347,6.944361625,Yb1P1,0,48.78386737,,1.86379207,-8.4158483,520,0.0077053
mp-2393,221,7.304683191,10.62935429,Y1Tl3,0,109.6765569,,6.40511817,-14.48338783,520,1.09E-05
mp-2395,204,-48.49167672,7.531757013,Sb12Rh4,0,412.8865545,,7.25274984,-85.33147172,520,4.85E-05
mp-2399,221,2.437735501,9.243621312,Y1Hg1,0,52.00550137,,3.81566141,-7.81074195,520,4.40E-06
mp-2400,194,2.611506569,2.014755696,Na4S4,0,181.5020926,,2.00388689,-28.42580746,520,6.31E-05
mp-2403,221,3.092896553,15.88742523,Y1Pt3,0,70.46235706,,6.04061843,-28.57180033,520,0.0003611
mp-2404,227,-1.221833763,2.425285508,Ca2Al4,0,128.7756675,,5.3136188,-20.96267732,520,0.00011315
mp-2408,55,10.32613419,10.2621749,Ga6Pd10,0.011670146,239.8918602,,5.33088236,-80.15888103,520,5.55E-06
mp-2410,191,6.336222595,7.702430842,Sr1Ag5,0,135.1642408,,2.79896032,-16.96748784,520,0.0002821
mp-2416,62,11.6455748,4.778107984,Y4F12,0,202.8203685,,-0.66849705,-114.0999948,520,2.88E-06
mp-2418,61,36.33267014,5.936576414,Pd4Se8,0,295.7575944,,2.83463514,-52.02505996,520,2.05E-06
mp-2420,62,1.990600153,12.10182454,P4W4,0,117.9017715,,9.03656386,-76.44615893,520,1.70E-06
mp-2424,191,0.810548921,6.967285088,La1Zn5,0,111.0517133,,4.58915761,-13.12816637,520,0.0003656
mp-2426,221,0.668461699,5.861770937,Li1Ag1,0.012187055,32.5234747,,1.91912288,-5.15930892,520,8.90E-06
mp-2432,194,-6.203874843,1.731927611,Ca4Mg8,0,340.1294268,,2.72222037,-22.22103834,520,0.000143525
mp-2434,221,4.220833283,6.949817381,Sr1Tl1,0,69.76915405,,4.07090841,-4.90717305,520,0.0003148
mp-2439,216,-0.424501061,8.519311922,Zr1Ni5,0.00181861,74.98192691,,6.88279969,-39.35753149,520,0.2162024
mp-2444,221,1.079644541,10.17538537,Ga1Rh1,0,28.17154862,,6.60477839,-11.76291884,520,1.51E-05
mp-2449,221,2.429315515,11.15089842,Nb1Rh3,0.006694324,59.80777931,,6.57042272,-34.20710793,520,2.36E-05
mp-2451,166,0.757196758,3.599967103,Y3Al9,0.001918424,235.0382556,,6.17191004,-58.35328956,520,9.70E-06
mp-2455,58,3.734406362,10.78808772,As4Os2,0,104.69044,,6.38492622,-42.39175101,520,2.08E-05
mp-2461,12,2.299069226,5.106985524,Ca1Ga4,3.35E-05,103.7132639,,3.74749201,-15.9390066,520,6.00E-07
mp-2463,227,-2.738629799,10.43460264,Lu2Fe4,0,91.235892,,4.31333096,-43.94572241,520,3.0409631
mp-2469,216,3.184682031,4.576805151,Cd1S1,0.00121967,52.4182329,,0.90525426,-6.32149041,520,0
mp-2472,225,1.474146599,4.877525712,Sr1O1,0,35.27691481,,1.5684455,-12.10460644,520,0
mp-2474,221,1.447978738,6.700101656,Y1Ag1,0,48.76806485,,3.59783487,-9.96979385,520,4.40E-06
mp-2478,180,1.932833066,5.578318431,Nb3Si6,0,133.1308776,,8.72311356,-67.7990358,520,0.000129067
mp-2480,205,7.547617906,10.62412232,Os4Se8,0,217.6619015,,6.07634959,-74.96767828,520,3.05E-06
mp-2482,139,-31.30309777,2.201046302,Ca1C2,0.029977424,48.35861747,,1.40984514,-20.38283395,520,0
mp-2488,198,4.515887987,13.16049472,Si4Os4,0.011948143,110.1847365,,9.82018719,-69.51557996,520,0
mp-2490,216,1.267202694,4.006312614,Ga1P1,0,41.73685895,,3.44983504,-9.25928642,520,5.60E-05
mp-2501,140,-17.53547065,9.106684865,B2Mo4,0.019579599,73.91851668,,8.74090013,-58.65822056,520,7.26E-05
mp-2507,194,25.99096209,3.405807722,Ga4S4,0,198.5114388,,1.89119251,-33.8568966,520,4.75E-07
mp-2510,123,4.046280973,11.18802591,Zr2Hg2,0,86.62270597,,4.26814974,-18.39048665,520,0.00157925
mp-2511,62,10.2910238,8.049956215,Pb4F8,0.022766412,202.3160666,,2.1226015,-58.3614557,520,1.91E-05
mp-2512,12,9.269918924,10.77853002,As2Pd10,0,187.0353495,,5.23304933,-64.3552034,520,8.50E-07
mp-2513,205,11.61076281,10.27381472,As8Pt4,0,222.9999653,,6.13731354,-67.71359337,520,2.50E-08
mp-2516,221,0.974203484,5.559416226,Y1Zn1,0,46.09221948,,3.14405196,-8.45608197,520,0.0018093
mp-2517,62,-3.169996736,2.165187788,Ca8Si4,0,332.0529286,,3.42770469,-43.25241807,520,2.70E-05
mp-2530,225,5.358510298,3.399136922,Li2Te1,0,69.11648157,,2.21831296,-10.09085827,520,0
mp-2533,136,0.166566763,5.647407559,Nb2O4,0.026543588,73.45314661,,4.52089746,-54.47681967,520,4.51E-05
mp-2534,216,2.393440637,5.053198872,Ga1As1,0,47.53187265,,2.68290327,-8.38980253,520,0
mp-2536,140,-23.58614216,8.108393572,Ni4B2,0,52.50792277,,8.92103991,-38.23358592,520,0.0004637
mp-2538,193,7.332422956,4.436241197,Y10Si6,0,395.8618762,,4.50482477,-108.7398283,520,1.61E-05
mp-2540,221,0.163325567,8.926400131,V1Tc1,0,27.70693357,,7.65073914,-20.19486645,520,6.00E-07
mp-2542,186,-2.70553367,2.967462469,Be2O2,0,27.99206985,,2.40934989,-28.41230086,520,0
mp-2552,167,7.168558187,5.99579376,Te2O6,0.020319077,97.26407482,,4.19266631,-42.39479076,520,0
mp-2553,191,0.209978349,8.279819001,Hf1Be2,0.017963814,39.41146217,,3.67345423,-17.94410792,520,9.00E-07
mp-2556,123,2.173122372,9.04726616,Tl1Sn1,0.035042045,59.3006803,,6.72444954,-6.30652111,520,0.0004245
mp-2557,194,-9.824737211,5.595338057,Zr4Al2,0.013616604,124.3055992,,4.95124388,-43.86243236,520,1.49E-05
mp-2559,225,-17.54860979,4.63299227,Se1S1,0.377602576,39.79314796,,5.68593665,-6.83170665,520,5.40E-06
mp-2560,221,-1.316677295,8.054963095,Ti3Hg1,0.069086934,70.9553335,,5.48919887,-24.11825914,520,0.0002186
mp-2562,186,-3.430164348,3.391421443,Mn2S2,0.017909945,85.19846635,,3.88166273,-28.97072505,520,4.9591005
mp-2564,221,14.54612531,2.516151313,Sr1Mg1,0.027706316,73.86512531,,2.09688777,-3.40163719,520,4.79E-05
mp-2567,223,-46.56071127,5.778141028,V6Si2,0,103.9808881,,7.28954685,-69.0925498,520,0.0062073
mp-2568,191,4.965639963,4.161527116,Y1Si2,0.036868877,57.88879095,,6.97910057,-18.90895824,520,2.50E-06
mp-2572,194,-46.40721923,2.393658483,Sr4Mg8,0,378.024242,,2.51385923,-20.91253845,520,0.000304525
mp-2574,137,-4.571993456,5.799508257,Zr2O4,0.037278858,70.56331708,,2.90006389,-56.80364132,520,1.35E-06
mp-2576,62,6.848006205,3.997691706,Sr8Ge4,0,411.8520862,,2.16358889,-38.41714712,520,3.85E-06
mp-2577,221,-8.563309371,9.484170279,Mn3Rh1,0.163809558,46.87377943,,6.73677856,-34.55581276,520,0.0038588
mp-2578,164,1.68391254,7.550131025,Ni1Te2,0,69.03618538,,7.77392245,-12.72533266,520,6.10E-05
mp-2582,70,10.96096965,4.061413161,Ti2Si4,0.006035107,85.07342335,,8.81221171,-40.82951402,520,3.94E-05
mp-2583,123,1.853771672,8.321026007,Ti2Rh2,0,60.17614227,,7.13290515,-33.4828566,520,0.0003936
mp-2585,193,15.54950515,4.483289868,Sr10Sb6,0,595.1182696,,3.83713379,-57.6209621,520,0.0007827
mp-2588,166,-1.499531432,7.541136449,Y3Co9,0,175.5229802,,4.49435339,-85.28512113,520,0.001109067
mp-2589,205,3.848193385,3.182350624,Mg4O8,0.02424525,117.5164764,,3.32665794,-66.40273479,520,1.50E-07
mp-2591,163,0.813705789,4.839896709,Ti12O4,0,219.031695,,6.69999612,-136.9127214,520,2.30E-06
mp-2593,221,-7.623165359,7.466733106,Al1Ni3,0,45.15923359,,8.40752091,-22.80966126,520,0.7110644
mp-2597,225,3.122595615,6.488053581,In1Te1,0.00845075,62.04396249,,6.29917674,-6.45875065,520,0.0002811
mp-2600,221,17.48298937,5.680578335,Ba1Te1,0.16707966,77.44310532,,3.81543397,-8.31318587,520,5.40E-06
mp-2604,205,13.13240202,5.167635979,Mg4Te8,0.007170697,359.2582498,,4.83630305,-38.46444774,520,0.000241825
mp-2605,225,0.498787017,3.286686364,Ca1O1,0,28.3320955,,2.28438542,-12.87848316,520,0
mp-2606,191,5.284139361,9.234612428,Ba1Pd5,0,120.3742633,,3.42413485,-29.84151827,520,1.49E-05
mp-2612,225,1.012926112,6.131198136,Ge4Te4,0.01604765,216.9274781,,5.1040806,-31.66029004,520,4.15E-05
mp-2613,191,1.676772856,7.947285473,La1Cu5,0,95.41132348,,7.42963843,-26.30989115,520,3.37E-05
mp-2619,194,-3.521338864,8.417663061,Fe2Sb2,0.03997116,70.07171327,,8.30172181,-25.08729241,520,0.01915485
mp-2624,216,2.801939513,4.07841126,Al1Sb1,0,60.56062422,,4.41412382,-8.19939072,520,0
mp-2626,63,10.21722821,9.654898562,Zr6Rh10,0,271.123727,,5.77784963,-137.6862828,520,2.50E-07
mp-2632,62,20.3756929,8.023652609,Tl4F12,0,216.3748809,,0.22512543,-60.42494003,520,3.50E-07
mp-2633,205,26.72160538,6.419359677,Ge4O8,0.224910894,108.270495,,4.56491207,-74.78553899,520,6.00E-07
mp-2634,187,3.089731045,7.983999203,Nb1N1,0,22.2361424,,7.13952523,-20.57211376,520,7.00E-07
mp-2637,225,1.964244344,5.766921142,Y1Se1,0,48.33563535,,5.88201191,-13.47849751,520,3.07E-05
mp-2639,221,1.409903637,1.288932248,Na3N1,0.264078863,106.8984818,,-0.08164101,-11.35274518,520,0.0002302
mp-2642,221,-7.409503914,9.349310806,Cd1Ag1,0,39.12397597,,3.14525961,-3.89819012,520,3.39E-05
mp-2644,194,-0.457242065,8.868030337,Co2Sb2,0,67.66961618,,8.64050865,-23.11087937,520,2.10E-05
mp-2646,164,3.393228351,3.936735607,Mg3Sb2,0,133.474209,,4.76511508,-14.88363827,520,1.40E-06
mp-2647,225,8.331506814,7.476905121,Al2Au1,0,55.72873629,,6.30845943,-12.03225878,520,0.0001595
mp-2649,193,-13.59096535,7.485810557,Zr10Sb6,0.0064271,364.4139154,,7.06035859,-120.9720651,520,0.0006118
mp-2653,186,5.613363894,3.451979394,B2N2,0.093499158,23.8765966,,7.59306743,-34.77647044,520,0
mp-2657,136,-6.401617963,4.125562044,Ti2O4,0.036710181,64.29198128,,3.26145875,-53.61993118,520,6.50E-07
mp-2658,221,-0.365413676,5.791724309,Al1Fe1,0,23.74710769,,7.75721443,-12.86885296,520,0.7098729
mp-2659,12,0.418645663,1.79010606,Li1N3,0,45.417319,,0.54327254,-27.43430527,520,0.0001499
mp-2662,62,-2.966491303,5.958479029,Mn4P4,0,95.76934572,,8.82044555,-63.19597212,520,0.001161675
mp-2663,223,4.288644764,11.15047828,Nb6Pt2,0,141.1183613,,5.89907353,-75.83365047,520,1.42E-05
mp-2664,225,1.471037899,5.375280531,Ti1O1,0.27114305,19.72969596,,9.57157956,-17.42945678,520,3.88E-05
mp-2666,140,1.930356877,7.982513171,Cr2Sb4,0.138579602,122.947751,,9.18001038,-34.95297521,520,0.0009811
mp-2670,223,-48.53689735,8.282347987,Nb6Ga2,0.086190837,139.7192626,,4.90441833,-68.06483009,520,0.00037205
mp-2672,64,5.805538274,2.312132143,K4O4,0,158.2814065,,0.76154979,-32.68243216,520,2.70E-06
mp-2673,123,0.684876267,10.84349154,Yb1Pb1,0,58.22878747,,4.88129212,-6.35862394,520,1.00E-06
mp-2674,227,4.398241831,13.90214583,Y2Pt4,0,114.4457612,,6.23706909,-43.70516836,520,8.65E-06
mp-2676,227,0.431023171,9.521011795,Ta2Be4,0.036422077,69.40463601,,4.40702628,-39.79905561,520,6.70E-06
mp-2677,221,1.703060568,9.333916825,Sc1Pd3,0,64.79538571,,4.80220796,-25.27883652,520,3.00E-05
mp-2678,123,0.979364112,14.25905359,V2Pt2,0.001667243,57.30183211,,7.4280032,-32.49779648,520,0.00085895
mp-2680,221,-0.000505983,4.717520604,La1B6,0,71.72633881,,8.64770241,-48.94506324,520,1.40E-05
mp-2682,14,12.46550686,8.478685879,Sb8Rh4,0,271.3878426,,7.94051742,-68.01608478,520,7.75E-07
mp-2685,123,5.122125125,14.01389225,Hg2Pd2,0,72.75667339,,4.13822548,-11.64670166,520,1.45E-06
mp-2691,216,4.59151472,5.300487005,Cd1Se1,0,59.9527961,,-3.60049965,-5.65901296,520,1.10E-06
mp-2692,225,4.282053133,7.879850893,Nb1O1,0.792256498,22.94996464,,8.14959559,-17.35087166,520,0.0008901
mp-2693,225,2.05411722,5.884042308,Sn1Se1,0.003827793,55.78456694,,5.52923983,-8.35701686,520,9.00E-07
mp-2694,227,-1.287814361,4.744791736,La2Al4,0,134.9967586,,8.12447681,-27.83558529,520,0.00289755
mp-2695,58,6.644523961,10.88404511,Sb4Os2,0,132.351309,,8.18094004,-39.06115451,520,8.65E-05
mp-2696,221,1.814862356,5.915484543,Mg1Ag1,0,37.10241436,,3.991052,-4.92587531,520,9.13E-05
mp-2699,166,31.09503973,2.425873483,Ca2Si4,0,131.7671537,,5.60911616,-28.00451149,520,2.00E-06
mp-2700,166,0.334001921,2.362148434,Ca1Si2,0.001572805,67.66095635,,5.26800138,-13.99753733,520,1.65E-05
mp-2701,194,1.427394928,8.113988704,Nb2N2,0.039854205,43.75982016,,7.94355166,-40.9848107,520,1.20E-06
mp-2715,14,3.393316886,7.358315725,Co4As8,0,188.4569064,,6.29295263,-69.54617854,520,0
mp-2723,136,2.205759597,11.30227002,Ir2O4,0,65.88394874,,5.74379955,-42.22052079,520,1.74E-05
mp-2730,216,6.500046469,7.37792179,Hg1Te1,0,73.86528661,,2.19834214,-3.78330246,520,0
mp-2732,225,1.095212848,9.132700635,P1Rh2,0,43.05301981,,7.64293102,-22.3737988,520,7.74E-05
mp-2739,96,12.14330234,5.630385506,Te4O8,0.011017739,188.2784316,,4.17479272,-64.41526684,520,1.00E-07
mp-2741,225,1.042156392,3.08983303,Ca1F2,0,41.95898704,,-1.10471018,-17.57719594,520,3.40E-06
mp-2743,221,0.683248145,6.954608458,Li1Pd1,0.012146415,27.06699698,,2.45851423,-7.92660895,520,7.10E-06
mp-2744,187,0.972707351,6.608908794,Li1Pd1,0,28.48282099,,2.71242113,-7.95090178,520,4.79E-05
mp-2746,225,1.451306263,8.514934507,Mo1C1,0.302129572,21.05199419,,9.86618414,-19.63796185,520,3.59E-05
mp-2749,227,-0.811018468,3.293296637,Ti2Be4,0,66.4472074,,4.7559033,-31.91203269,520,1.1346339
mp-2752,223,3.806896248,10.87802014,Nb6Au2,0.053329599,145.2276572,,5.42740781,-67.76420667,520,0.0032756
mp-2755,164,21.61034157,5.255404414,Si1Te2,0.043190537,89.50912151,,5.20196689,-11.58062514,520,4.20E-06
mp-2757,221,2.122276775,13.04466637,Cd1Au1,0.012878404,39.38265011,,3.95210383,-4.52466853,520,9.20E-05
mp-2758,225,1.708399349,4.416865779,Sr1Se1,0,62.62644307,,1.51177429,-9.31015358,520,1.80E-05
mp-2760,12,3.746266541,7.503641673,Nb6C5,0,136.6495433,,6.81622681,-112.7528156,520,8.50E-06
mp-2762,227,3.709055799,14.35964067,Y2Ir4,0,109.473394,,6.96604054,-53.1692521,520,3.82E-05
mp-2767,123,0.503784197,6.197684371,Ti2Ga2,0,63.01152948,,5.68380099,-23.7236188,520,8.51E-05
mp-2772,194,2.169957823,4.520877045,Zr4Al8,0,213.3115388,,6.77396367,-70.63717833,520,5.68E-06
mp-2776,225,4.318382139,9.253558158,Ga2Au1,0,60.36880029,,3.55569069,-10.03827125,520,3.18E-05
mp-2781,221,1.216860294,6.873734513,Sc1Pd1,0,36.56900206,,5.17427472,-13.32073899,520,0.000254
mp-2783,140,3.071618207,13.2745923,Ta4Si2,0,97.5667037,,7.41847998,-61.63505759,520,5.72E-05
mp-2784,225,8.824792807,2.926759204,Na2Te1,0,98.48285433,,0.70514502,-8.5776086,520,0
mp-2795,225,0.552511906,6.502965108,Zr1C1,0,26.36109018,,5.43468919,-19.38802635,520,1.19E-05
mp-2797,191,0.775396484,7.53518753,Y1Cu5,0,89.61086918,,5.84146386,-28.07526632,520,5.80E-06