material_id,spacegroup.number,delta_volume,density,full_formula,e_above_hull,structure.lattice.volume,band_gap.optimize_structure_gap,efermi,final_energy,encut,total_magnetization
mp-756560,15,-2.957576688,3.334301721,Li4Ti6O14,0.050006699,268.4100632,,1.6810207,-191.2565352,520,0.00087285
mp-756580,63,0.36235647,8.333027887,Sr2Lu4O8,0.031357382,199.8903697,,1.74491807,-108.7924692,520,6.53E-05
mp-756597,12,0.812995499,6.403029701,Li4Hf2O6,0.026334183,124.6735123,,1.20927219,-90.80997231,520,1.68E-05
mp-756628,63,0.403963386,3.134156679,Li8Nb2O8,0.090999374,195.6815958,,3.68794188,-112.9040627,520,0.00030435
mp-756645,166,1.818230738,3.453655624,Li5Ti3O8,0.022558308,147.2715163,,4.8913145,-114.6515503,520,0.857192
mp-756646,227,2.343191931,7.445387368,Sr2Lu4O8,0.009694279,223.7213381,,0.91015524,-109.0957527,520,6.07E-05
mp-756654,62,5.842955396,5.328280071,Sb4O4F4,0.082990984,195.4119893,,3.35479737,-64.75185314,520,0.000195525
mp-756689,14,1.981802614,5.636371702,La4Sb2O12,0.11102832,291.9995197,,3.85778025,-131.2762194,520,1.0002747
mp-756746,2,-4.296485119,4.583301226,Rb8Pb2O8,0,444.2320617,,0.38816666,-76.82523875,520,0.00036235
mp-756784,123,0,3.958329204,Li1Sb1S2,0.051562034,80.89357582,,5.01945665,-16.78265051,520,6.60E-06
mp-756795,12,-1.718464963,4.804214215,Rb6Pb2O6,0.105305721,353.6621773,,2.30509488,-58.63048804,520,0.00053855
mp-756811,63,0.862694164,1.930981203,Li8Ti2S8,0.024843027,350.6703897,,0.97107712,-87.52828942,520,0.0005434
mp-756867,174,1.094667844,3.720385935,Li3Cu3B3O9,0.099805748,173.1283191,,2.51986696,-113.0889027,520,1.0084866
mp-756951,12,-1.117544932,4.749151067,Li2Sb2O6,0.038658892,123.5656292,,2.34638367,-58.42225661,520,2.80E-06
mp-757042,19,1.023244266,3.416921805,Li4Sn4P4O16,0.061358693,428.8679298,,1.83533853,-180.9156841,520,3.46E-05
mp-757070,166,-1.418410252,4.292422342,Ba1Ca1I4,0.090409932,265.0035679,,1.81501862,-19.79606727,520,0.0007131
mp-757074,162,1.884856299,3.802275526,Ba1Ca2I6,0.029028927,427.5118837,,0.50116173,-30.05487,520,0.0004231
mp-757098,14,-4.365499709,2.882073583,Li4Fe4S6,0.254656496,255.5470918,,2.65755652,-74.81871605,520,7.84514685
mp-757173,2,32.53815167,4.81388031,Sb10O14F2,0.079333376,510.3812629,,2.71042046,-149.9634815,520,0.0005105
mp-757176,15,0.622245316,3.474598315,Ba2Y2F10,0.06271639,307.0319975,,-3.32128848,-91.19484831,520,0.0014527
mp-757209,33,13.7995407,3.164059847,Li4Cu4P4O16,0.088128268,347.3386508,,1.86123046,-173.8359376,520,1.005560325
mp-757235,141,1.236971756,3.675865401,Li4Cu2F8,0.034670671,138.6136596,,0.2877841,-63.04627679,520,0.9999189
mp-757282,2,0.748457571,3.999666237,Li2Sn5P4O16,0.066194567,409.9039945,,2.89245455,-176.3015437,520,0.0025436
mp-757430,12,2.17122433,3.257252707,Li4Cu2P2O8,0.081108177,175.7775014,,3.95087758,-97.10128852,520,0.0002419
mp-757470,2,-0.050511756,2.382459373,K2Zn1P4H8O16,0.010107638,370.4856931,,-0.58267529,-185.823539,520,0.0014606
mp-757490,2,-0.627115032,3.558102541,Li4Sn4P4O16,0.075527859,411.8510256,,2.36099862,-180.5189475,520,6.13E-05
mp-757583,119,-0.027634044,4.226864965,Li2Ti1Cu1O4,0.098554738,74.36427586,,3.92961159,-51.83709453,520,0.2714484
mp-757590,61,2.928193887,3.785801598,Li8Sn8P8O32,0.063970052,774.1600519,,2.8869973,-361.6851322,520,0.000981875
mp-757758,146,-0.742174908,2.83223098,Li1Ti3Nb1P6O24,0.012052499,476.8246215,,0.55259929,-274.707797,520,0.0009835
mp-757826,146,0.715451234,2.930236261,Cs1Ca1N3O6,0.047779836,176.2409293,,0.18613876,-68.96527109,520,0.0004824
mp-757872,12,1.584595486,5.239430569,Li2Ag3F6,0.049188045,143.0871554,,-0.59998247,-42.17295905,520,1.0001202
mp-757915,2,1.442835501,4.334303768,Li2Ag2F6,0.071059658,131.6418713,,,-38.74503188,520,1
mp-758002,143,1.588721383,3.387569364,Li9Sn3P6O24,0.055799528,484.5131511,,3.94380771,-271.1973002,520,0.3340345
mp-758044,1,0.228291832,3.878911732,Li5Ti8O16,0.021156795,288.3775955,,5.5816104,-232.2507696,520,0.0082327
mp-758071,33,6.566526623,3.185425993,Li4Cu4P4O16,0.104777716,345.0088877,,,-173.3697531,520,0.994758475
mp-758089,70,0.146419659,3.985489348,Li4Ti6O12,0.034649055,211.2224637,,4.88841305,-174.640626,520,0.00188925
mp-758189,1,2.526659031,3.857871793,Li2Cu3F8,0.10180552,153.4509693,,,-55.2128948,520,3.0000005
mp-758192,9,2.495836185,3.054029008,Li2Cu2P2O8,0.106612537,179.9262999,,1.1713828,-86.65918904,520,0.97099285
mp-758251,166,2.824919353,3.138287369,Li5Ag1F8,0.037173966,155.8586034,,-2.01016446,-60.678193,520,2.0021205
mp-758270,15,-0.818935125,2.946710759,Li6Ti2P4O16,0.079345741,291.4909336,,5.23792532,-195.5158342,520,1.0038071
mp-758287,15,0.054273466,3.03746061,Li6Ti4P6O24,0.088642331,438.957733,,4.91403193,-291.5226117,520,2.001211
mp-758302,63,1.071118579,4.937839275,Li2Ag2F4,0.038675983,102.7738349,,-0.76005715,-32.36708864,520,0.0001006
mp-758320,14,2.358140653,3.430979669,Li4Cu2F8,0.022081844,148.5071917,,0.01545209,-63.22252037,520,1.00004075
mp-758415,62,5.084832965,3.5998812,Li4Cu4P4O16,0.065237672,305.2879296,,,-174.4768743,520,0.99999975
mp-758433,221,0.647814999,12.43894598,Ag1Hg1,0.0850031,41.17767568,,3.15979536,-2.96541939,520,0.0002783
mp-758523,198,0.981037738,12.10557068,Ag4Hg4,0.088704808,169.2466706,,2.88878303,-11.8320639,520,0.00063355
mp-758531,60,0.233266611,3.74532123,Li4Cu4P4O16,0.098195072,293.4328489,,,-173.5540671,520,1.00000115
mp-758587,62,3.468054435,3.379291557,Li8Cu4P4O16,0.056942528,338.8590374,,3.94269519,-194.9758778,520,0.000563425
mp-758624,29,9.564430705,3.230550177,Li8Cu8P8O32,0.049071168,680.3796371,,1.52629757,-349.8590728,520,1.002282725
mp-758673,58,-1.172942555,5.176566357,Li2Nb4O8,0.059402834,164.7214108,,3.22049784,-116.3546442,520,0.0060877
mp-758720,12,1.663410014,3.185344424,Li5Cu1F6,0.09038438,110.6427173,,2.98651507,-55.60908284,520,0.0001305
mp-758750,63,-0.15848334,3.797491536,Li2Cu2P2O8,0.099103087,144.70082,,2.79525205,-86.76432133,520,1.0000004
mp-758828,62,1.529350448,3.727739781,Li4Cu4P4O16,0.093593339,294.8167906,,2.71645768,-173.6829156,520,0.9999999
mp-758835,225,1.28736188,4.591611647,Na1Cu6O8,0.011400527,192.4901727,,2.43170033,-74.98546259,520,0.0039052
mp-758836,166,0.398791247,3.427593742,Li4Ti3O8,0.096426406,145.0286518,,2.48889684,-110.2474319,520,9.60E-06
mp-758848,12,-0.656990188,4.387214774,Ti5Nb1O12,0.034323382,198.420038,,5.07210452,-161.3977272,520,0.018983
mp-758955,33,3.144898576,3.133346338,Li4Cu4P4O16,0.072722825,350.743314,,,-174.26729,520,0.9999987
mp-758985,12,37.55743914,2.401219335,Rb4Ti4P4S20,0,897.9882772,,1.12497176,-169.8314524,520,0.0017612
mp-758989,14,2.988135135,1.965571863,P8H4N4F16,0.068324018,516.8756096,,-1.18806298,-172.9301979,520,0.000212425
mp-759066,161,1.327608979,4.379391531,Li2Ag2F6,0.059056383,130.2865603,,-1.11704597,-38.86506463,520,0.0087375
mp-759069,145,1.278895383,1.502911621,B6H18O18,0.002694204,409.9089084,,-2.65555151,-255.5690226,520,0.000469383
mp-759099,147,0.726260386,3.458120673,Li9Sb3P6O24,0.081463995,479.021988,,2.99711129,-269.3035334,520,0.000466433
mp-759169,136,5.653390487,3.261720412,Li4Cu2F12,0,194.9019032,,-2.10460424,-73.14847263,520,0.9907541
mp-759198,63,1.317429732,4.343214672,Li4Ag2F6,0.06983593,136.6792817,,-0.50132262,-51.2190317,520,0.00012765
mp-759224,65,1.150529096,2.916380562,Li5Cu1F8,0.017341767,142.4815226,,-1.65019437,-63.65150166,520,1.9983774
mp-759287,82,0.166916584,4.367011865,Li1Cu2P1O4,0.112508964,87.07800556,,4.84763423,-47.29558518,520,3.57E-05
mp-759413,173,0.385041028,2.671424209,Zn8P8H32N8O32,0,887.2313678,,-0.08441662,-504.7110506,520,0.0019524
mp-759416,146,0.204941007,3.359057197,Li9Sb3P6O24,0.0885932,493.1490423,,2.77872154,-269.0041068,520,0.0004412
mp-759433,15,5.162286439,2.830588418,Li6Cu2F10,0.075380232,210.4410287,,-0.94428206,-81.55538838,520,1.00014685
mp-759486,1,0.576604563,3.467102803,Li1Nb1Sn3P6O24,0.018059072,491.3007382,,1.01470857,-249.3960998,520,0.0007419
mp-759526,146,-1.152912578,8.907080104,Bi26O39,0.033060538,1129.288198,,4.64071641,-371.7880432,520,0.000383892
mp-759550,2,1.653175182,3.39438047,Li6Sb6P8O32,0.077914872,749.4467596,,,-340.5850192,520,0
mp-759568,5,0.141968349,4.424159544,Li1Bi1P2O7,0.051129078,146.3296222,,2.21052642,-73.85660213,520,9.08E-05
mp-759742,36,5.703563742,3.802125311,Li2Cu8P6O24,0.071098368,476.9538852,,2.46788607,-248.1210943,520,3.97825105
mp-759793,33,-1.750179843,2.846527482,Li4Ti8P12O48,0.00159281,904.4097595,,0.94609694,-557.41022,520,0.003208825
mp-759812,12,1.638405749,3.446316119,Li4Ti11O24,0.057554721,452.0947807,,1.39250682,-324.8125425,520,0.002903
mp-759825,62,0.388466886,8.349340444,Bi4O4F4,0.046762966,194.0921365,,3.58269383,-64.55785321,520,2.89E-05
mp-759838,2,0.537769565,3.643089531,Na2Sn4P6O24,0.030313313,497.1228643,,1.37230186,-243.374226,520,0.00084145
mp-759876,5,-1.993715339,3.516301251,Na5Sb1O5,0.001237739,149.5612533,,2.01627675,-52.38614583,520,0.0001195
mp-759877,216,1.418792847,2.561509842,Li4Cu1F7,0.038668614,145.4052392,,-2.91911952,-53.73997985,520,1.9924228
mp-759883,166,0.229219522,8.562736425,Bi2O2F2,0.020656453,94.62753755,,3.66103342,-32.43556568,520,2.74E-05
mp-759897,141,-0.934189305,3.634236693,Cu4O2F4,0.037797131,165.4840132,,-0.1109436,-44.87118492,520,1.84133045
mp-759939,51,-1.533912031,6.669478766,Ag2Ge2O6,0.112223318,113.7851432,,2.90076797,-53.58590241,520,0.0064295
mp-759968,15,3.654344753,6.018544945,Na4Bi2O6,0.002379335,167.174565,,3.59574001,-59.3692529,520,0.00013215
mp-760017,2,0.893680358,3.413015759,Li6Ti3O9,0.01415055,160.1863481,,2.54663851,-126.9039533,520,0.0004447
mp-760084,8,-0.180040099,5.970355395,Cu8O7,0.051190195,172.5422091,,4.41492135,-75.04758369,520,0.2554963
mp-760093,36,0.409441709,3.727683326,Li2Ti16O32,0.049049705,575.4179949,,4.56719787,-435.5114914,520,0.95411745
mp-760179,14,-1.948159481,5.320210198,Cu6O4F4,0.040112564,162.6974358,,2.95568488,-65.1662031,520,0.828994
mp-760231,33,0.993001782,3.696701352,Li4Sn8P12O48,0.01211555,950.9904745,,1.79242207,-490.3045714,520,0.000529875
mp-760311,146,5.927125381,3.316429358,Na7Sb1O6,0.038288188,189.6077984,,1.94053781,-63.08533383,520,7.93E-05
mp-760375,215,1.704910605,1.572514723,Li3V1S4,0,211.2212283,,-1.01543581,-40.22031165,520,0.0002104
mp-760376,99,-1.454659801,2.851449961,K1Ti1O3,0.089050894,78.59585959,,-0.40875634,-35.10638731,520,0.9855365
mp-760378,26,-0.463083509,3.751547149,Li2Ti4O8,0.041549045,147.5478506,,5.26769562,-114.3411364,520,1.02557095
mp-760381,216,-0.847791774,4.523704909,Cu1S1,0.012754209,35.09640911,,4.13562963,-8.59797135,520,0.00031
mp-760385,140,3.160386714,7.259150979,In4Ag2,0.113848725,154.408939,,5.51064856,-16.10333195,520,0.0002571
mp-760400,12,-6.606547765,4.211669814,Na5Bi1O5,0,159.2563831,,1.35604671,-50.21573432,520,2.70E-06
mp-760403,65,0.168868533,6.646018816,Ca1Cd3O4,0,110.263028,,1.87752093,-36.72125233,520,9.44E-05
mp-760411,42,0.310196127,7.708103927,Bi2C1O5,0.011114206,109.861337,,,-52.48128684,520,0
mp-760418,189,-1.175562604,4.979134199,Ba2Sr1I6,0.01845376,374.7537235,,2.06427011,-30.42145839,520,0.0013945
mp-760419,87,1.842402101,4.237678984,Li2Bi1F5,0.063019334,124.5515927,,-1.37359745,-38.3664931,520,0.0003391
mp-760432,43,2.010561262,5.558485443,Cu4O6,0.008544539,104.6127099,,3.16037991,-50.14034565,520,1.10E-06
mp-760457,40,0.241257077,4.046783252,Y2B2O6,0.085418333,121.2254732,,1.93058595,-86.30628239,520,0.0003688
mp-760461,63,2.115697354,6.596939522,Lu2B2O6,0.028659838,117.6892726,,1.35908538,-83.36303693,520,0.0002702
mp-760482,64,-45.17435987,1.336311431,F4,0,94.43185017,,-6.64719956,-7.55003962,520,3.03E-05
mp-760490,12,1.720605105,4.233153145,Mg7Cu2O9,0.064488507,173.0780029,,5.34231839,-103.0941203,520,2.0460359
mp-760515,71,0.234017513,5.288731821,Ba3Sr4O7,0.038378391,274.559139,,1.87211332,-83.36256337,520,0.0002839
mp-760536,174,-0.04740738,3.317637305,Cu3C3O9,0.134629203,185.5245612,,0.79988711,-97.8238895,520,0.411027367
mp-760580,15,-10.00298253,4.182865081,Li4Ag2F6,0.059278517,141.9188643,,-0.6712724,-51.34572065,520,0.00015385
mp-760582,12,1.519778384,4.383189126,Li4Ag2F6,0.077472177,135.4327739,,-0.28768471,-51.12739673,520,8.45E-05
mp-760594,74,-0.017332323,3.691180637,Li2Ti4O8,0.076825261,149.9608859,,4.91698532,-113.8472694,520,0.00950625
mp-760676,31,3.825513007,4.324157626,Li2Cu4P2O8,0.11877939,175.8819712,,4.62676383,-94.49084354,520,0.0003905
mp-760684,4,0.832876836,4.268671422,Li2Te2H2O8,0.072564934,155.2496256,,2.2240466,-72.82327502,520,0.00099145
mp-760690,148,1.31232822,3.198503231,Li8Te1O6,0.085852859,144.9105815,,2.91819636,-73.52439674,520,2.63E-05
mp-760804,13,3.849060194,3.772944719,Li4Ag2F8,0.068668802,174.0610295,,-1.60764799,-57.87483159,520,1.00009135
mp-760832,1,-0.668495733,3.453788839,Li9Ti18O36,0.100870999,721.2071579,,4.44023572,-510.7978308,520,0.993119433
mp-760980,160,-2.101253565,5.171565236,Fe1Cu5S4,0.100428336,161.1343126,,5.2699259,-46.82676251,520,3.806598
mp-761024,14,4.900448145,4.79827906,Na4Cd4O6,0.006342368,220.6538658,,0.56899769,-54.62294711,520,2.49E-05
mp-761036,63,0.518869333,4.646705745,Cd2Se2O8,0,182.5161967,,-0.08282297,-58.65855539,520,7.61E-05
mp-761108,43,36.60917867,7.965828479,Bi4O4F4,0.09985968,203.4366331,,3.24235059,-63.92069264,520,3.60E-05
mp-761128,83,-1.923331478,6.465400199,Ba1Nb5O8,0,187.4518497,,5.08527249,-125.6604429,520,6.46E-05
mp-761135,148,-1.732890097,3.258611782,Li6Sb4P6O24,0.056533022,559.7861269,,1.90528043,-260.9653158,520,0.0016285
mp-761143,1,0.275732964,3.337809406,K3Li3Sb3P6O24,0.07428904,533.9231737,,2.79146115,-251.4239682,520,0.334435167
mp-761191,33,5.237143744,3.319177327,Li4Cu4P4O16,0.084285724,331.1062261,,1.79348117,-173.9435288,520,0.9995452
mp-761252,33,0.54840949,2.598752262,Rb4P4H12O16F4,0,517.4714636,,-1.44783485,-225.6843844,520,0.000173775
mp-761269,15,-9.815018096,3.932528253,Li4Ag2F8,0.033860681,166.9975649,,-1.04075371,-58.36214528,520,0.99995695
mp-761285,12,1.912134221,3.445570417,Sc2V2O7,0.032517846,146.4071634,,2.71528253,-91.5809138,520,1.9998267
mp-761288,167,2.404713886,3.979187473,Mn2B2O6,0.038728473,94.93482892,,3.08269949,-77.73226058,520,4.0000048
mp-761290,166,12.03557576,4.187508023,Mn5O8,0.07812694,159.6832449,,2.6872293,-95.95418346,520,19.0003226
mp-761293,148,2.010385813,5.459231745,Zr2Co2O6,0.091775954,120.5461811,,3.75598512,-80.36831184,520,3.0001062
mp-761295,225,0.058407887,6.831819565,Mn1Cd6O8,0.007781603,208.399081,,1.48706018,-69.08225147,520,3.0004441
mp-761298,62,6.317308333,3.369036407,Li4V4P4O16,0.030388179,301.355966,,4.6067388,-199.9863614,520,3.00137595
mp-761314,160,0.059021736,5.908280739,Ga4Ni2O8,0.051714236,147.348693,,3.63764224,-79.63514859,520,2.00014695
mp-761315,13,11.45042046,4.741158081,Mn2Fe2O8,0.078782764,122.430039,,2.53338951,-79.62520971,520,6.99922915
mp-761331,146,0.124417966,2.76345634,Li1Ti3V1P6O24,0.013998002,463.4750783,,0.65930615,-268.626709,520,0.0023197
mp-761354,12,3.989969326,4.898375312,Cs4W2O8,0,348.2515484,,-0.78880674,-86.28707965,520,0.00015505
mp-761361,65,0.41172948,5.660627471,V1Sn1O4,0.015497338,68.54071465,,4.53249233,-42.08152558,520,0.9998588
mp-761384,160,-268.4902691,2.674180576,K3Mn1Cr1O8,0.00705403,218.7145158,,-0.5401503,-75.67209722,520,0.1133572
mp-761386,33,7.418034322,2.833158185,Li4Cr4P4O16,0.063069588,360.8284368,,2.16395254,-198.0757324,520,4.0002794
mp-761388,146,9.339307315,2.83431307,Li6Cr6P6O24,0.065007321,541.0221174,,2.36980146,-297.0322139,520,4.000187333
mp-761389,1,0.61870747,3.424224668,Li6V1Sb3P6O24,0.087490242,498.3693975,,2.81167435,-265.0830672,520,2.0007609
mp-761392,62,5.280874445,3.338712244,Li4Cr4P4O16,0.023107811,306.1911193,,3.82378396,-199.1946622,520,3.999938325
mp-761396,61,8.993185077,3.216515759,Li8Cr8P8O32,0.07911808,635.64684,,2.63241938,-395.2527494,520,3.999731438
mp-761397,62,3.589336829,3.355264766,Li4Cr4P4O16,0.079527344,304.6805871,,3.41758589,-197.6149153,520,3.99955785
mp-761401,63,2.137702507,3.42759282,Li2Cr2P2O8,0.081912121,149.1256536,,3.64207978,-98.77407077,520,3.999774
mp-761404,166,0.995598995,5.889711294,Co5Cu1O8,0.016250842,137.0807422,,4.13035533,-82.49237942,520,15.9998787
mp-761415,65,2.498313622,6.650186124,Cu1Ni3O4,0.093507783,75.81429512,,6.17038093,-38.6357942,520,4.9997912
mp-761433,173,7.475244769,3.033555668,Li6Cr6P6O24,0.046106349,505.4880234,,2.36770277,-297.8260547,520,3.99982525
mp-761477,14,5.148403296,3.678478676,Co4H8Se4O16,0.021253749,368.1902484,,1.24456694,-171.5447013,520,2.999837275
mp-761487,147,2.351437893,2.898670075,Li9Cr3P6O24,0.069253561,451.5790922,,1.5235234,-284.7054754,520,2.999706133
mp-761517,5,1.542965315,2.791945886,Li4Mn1Si2O7,0.023944886,149.2068715,,2.15101237,-94.27686644,520,5.0001452
mp-761524,148,-1.359703609,4.569556695,Mg2Co2O6,0.050745192,95.38043705,,3.38929533,-57.86158738,520,0.997756
mp-761527,9,2.787296323,2.805621951,Li2Mn2P2O8,0.015652682,185.6673699,,1.05622089,-100.3323037,520,5.0000814
mp-761556,65,0.086964478,5.340718712,Mn1Co1O4,0.065754442,55.30307225,,3.11968417,-38.09781371,520,4.3160508
mp-761560,37,5.618992558,2.835861452,Li4Mn4P4O16,0.057915865,367.3751045,,1.02538308,-199.4812383,520,4.999544225
mp-761568,36,-2.441311339,4.450710876,Rb4Co2O6,0.028009704,207.3417061,,1.45635561,-57.79389895,520,2.9994126
mp-761572,119,1.833619576,4.182989896,Li2Ti1Co1O4,0.058927456,73.31311266,,3.93515767,-54.04417986,520,2.9944266
mp-761573,2,0.69468648,2.854355959,Li4Mn1P2O8,0.064033699,158.6127622,,2.05662564,-99.51857759,520,4.9994067
mp-761574,148,0.702625745,6.348317498,Co2Sn2O6,0.035583216,118.0427241,,4.92506568,-61.70328119,520,2.999891
mp-761639,146,5.822103667,2.997470084,Mn3Co1P6O24,0.088003452,439.6251057,,0.11601257,-234.2662495,520,11.9413124
mp-761643,1,-0.559408415,3.388557152,Li6Ni3P6W1O24,0.081503545,476.0251062,,1.43714219,-259.5897842,520,6.0018524
mp-761656,2,0.038692501,2.996296175,Li4Co1P2O8,0.079919509,153.3130768,,1.9930645,-95.52713256,520,3.0001841
mp-761669,160,0.340714382,3.807921469,Li2Ti3Co1O8,0.035813984,150.1891706,,2.54616066,-108.1801405,520,3.0035086
mp-761675,160,3.834464441,4.088969449,Li2Cr3Co1O8,0.065980015,144.8966958,,2.11740561,-94.51810667,520,9.0010718
mp-761676,166,-1.840448335,5.200713372,Li2Co3Sb1O8,0.00963463,140.6273378,,3.86943555,-82.35956975,520,12.0003761
mp-761694,1,0.643377082,3.663250252,Li1Sn3Sb1P6O24,0.007804478,478.0734617,,1.58416574,-239.0641079,520,1.80E-06
mp-761709,180,1.301488072,2.620975866,Li3Co3P3O12,0.066096036,305.7147495,,0.54952688,-138.1796715,520,3.000813
mp-761726,33,0.688923878,3.158881156,Li4Co4P4O16,0.095478989,338.208769,,1.57625323,-183.4168393,520,3.000034125
mp-761727,33,0.373974373,3.03867472,Li4Co4P4O16,0.006894677,351.5879143,,1.0202181,-185.8972,520,2.999923025
mp-761730,12,1.399601141,4.508297725,Li1Co3Cu1O8,0.040121241,138.2273516,,1.7009851,-71.50388181,520,4.983483
mp-761736,29,2.244608051,3.070190974,Li8Co8P8O32,0.005264549,695.9575585,,1.02206418,-371.8856871,520,3.000258538
mp-761738,166,-3.341373747,4.886088896,Li2Co3Ni1O8,0.012303139,128.2493909,,3.32767629,-77.08614303,520,11.0000037
mp-761748,166,1.552197358,4.578331674,Li2Cr1Co3O8,0.043581097,134.4412857,,2.9703712,-85.07924106,520,6.9988199
mp-761752,63,4.261087118,3.83724828,Li2V2Co2O8,0.01248599,156.4910651,,1.70837576,-92.96986936,520,2.99984445
mp-761765,10,0.781420945,3.852883626,Li3Mn3Si1O8,0.088412454,147.275615,,3.29337897,-102.3836582,520,11.9995978
mp-761777,166,-0.091719952,4.771493832,Li2Co1Ni3O8,0.014119918,131.1626021,,3.10662571,-70.51765088,520,1.0030443
mp-761800,1,5.763972086,2.889454799,Li6V3Cr1P6O24,0.045241967,469.1159514,,2.24544884,-282.448113,520,8.9999535
mp-761815,61,0.687636728,3.488716399,Li8Co8P8O32,0.070775441,612.4666983,,4.75396787,-368.2170772,520,2.999959938
mp-761842,3,-0.078359567,8.720930448,Hf3Sn1O8,0.025944749,148.9327846,,2.95531946,-110.1540782,520,0.0004677
mp-761872,199,0.688232762,4.532267956,Na4Sn4O6,0.083790468,242.8359876,,5.07560674,-70.58763145,520,1.76E-05
mp-761873,12,-2.655191518,2.492750443,K2Ti2F8,0.018855886,217.1092878,,,-71.36312978,520,1
mp-761891,12,0.608840168,3.957452507,Li3Ti4O8,0.0455367,142.7833989,,5.58363385,-117.2584432,520,0.0002304