material_id,spacegroup.number,delta_volume,density,full_formula,e_above_hull,structure.lattice.volume,band_gap.optimize_structure_gap,efermi,final_energy,encut,total_magnetization
mp-1055,225,6.108391298,6.693511841,Cd1Se1,0.145770695,47.47567857,,2.25283521,-5.36747157,520,1.00E-06
mp-1057,164,-0.06465766,4.767798505,Al3Ni2,0,69.07528882,,7.86325458,-25.85786067,520,3.22E-05
mp-1058,136,2.305339341,5.616882767,Pd2F4,0.025339559,85.38890876,,0.91566461,-24.38351557,520,0.03604905
mp-1065,225,5.898926203,6.135696614,La1Sb1,0,70.54540284,,6.50075774,-11.59336321,520,0.0004852
mp-1066,225,2.691263067,10.38460195,Yb1N1,0.320516888,29.9095092,,1.31994987,-10.89711683,520,0.9969075
mp-1068,205,1.0456923,4.347611517,Cu4S8,0.005079797,195.0597303,,6.16842865,-50.57692359,520,8.81E-05
mp-1070,186,7.763128585,5.301027405,Cd2Se2,0.001059185,119.8933687,,0.5013296,-11.31378918,520,3.22E-05
mp-1073,221,0.856115093,4.408704883,Ca1Cd1,0,57.43499381,,2.42637171,-3.65013443,520,7.59E-05
mp-1076,221,0.174085158,2.288806452,K1B6,0,75.42655202,,2.2028364,-41.36474431,520,8.20E-06
mp-1077,59,0.731936001,7.467945326,B4Ru2,0,54.56249263,,8.36765605,-46.97175851,520,6.00E-07
mp-1078,194,11.0684179,5.658778717,Ca4Cd8,0.007650567,310.9340822,,2.70755332,-19.31921519,520,1.98E-06
mp-1082,221,1.287726063,18.41433036,V1Ir3,0.020412868,56.59406706,,9.07983539,-37.58728359,520,5.00E-07
mp-1084,225,0.054028727,3.608851783,Zr1B12,0.017219714,101.6683661,,6.84499347,-91.44150784,520,4.50E-06
mp-1086,225,0.268274799,14.23427173,Ta1C1,0,22.51012635,,8.22509744,-22.23717116,520,3.83E-05
mp-1087,225,1.216907286,3.566053226,Sr1S1,0,55.73153354,,1.81671668,-10.11311164,520,0
mp-1089,221,0.920051013,17.77477593,Ti1Ir3,0,58.34315572,,8.72922801,-37.34632276,520,4.33E-05
mp-1090,194,-2.762808115,7.096054328,Fe2Se2,0.194606305,63.09110808,,6.11260585,-24.2225849,520,2.3081014
mp-1099,62,2.043713318,7.985960722,Ni4Ge4,0,109.2338145,,6.40651994,-44.05114431,520,9.00E-07
mp-1102,225,-0.056366114,11.66341894,Lu1N1,0,26.90447869,,3.90177372,-16.61352723,520,8.00E-07
mp-1105,139,2.599708634,5.391924716,Ba1O2,0,52.14688932,,2.24176671,-17.3686954,520,2.80E-06
mp-1106,62,3.346419432,3.353462039,Sr8Si4,0,402.7240227,,2.73036401,-39.59377751,520,4.29E-05
mp-1108,191,0.953893723,12.11754649,Ta1B2,0,27.75934835,,9.23595048,-27.16826714,520,7.20E-06
mp-1111,193,-1.981715764,6.027479519,Mn10Si6,0.045078937,197.7758857,,7.61974741,-129.7216867,520,0.04318685
mp-1113,140,1.489344319,16.75971714,B2W4,0,75.00115625,,7.89105606,-66.75944799,520,1.70E-05
mp-1114,194,-0.862282028,5.07456036,V2P2,0,53.60996062,,8.16808559,-32.2499034,520,2.07E-05
mp-1115,164,13.80141872,7.821288413,Pt1Se2,0,74.94633778,,3.0835397,-14.21121884,520,2.66E-05
mp-1118,62,27.47423614,7.347406808,Si4Ni8,0,131.5089471,,10.08157471,-74.54970361,520,7.85E-06
mp-1120,223,2.593402091,12.73266143,Mo6Ir2,0.081352894,125.2087293,,8.60870262,-83.52444635,520,2.50E-05
mp-1121,221,-4.20343225,8.876589952,Ga1Co1,0,24.06764711,,5.98674829,-10.69985908,520,0.0014561
mp-1123,216,4.148648406,7.128034118,Hg1S1,0,54.1990546,,1.36595528,-4.69644453,520,1.00E-07
mp-1124,194,-0.485837996,5.108719541,Mg4Zn8,0,201.6848217,,3.62971226,-18.08205465,520,1.75E-07
mp-1125,62,25.59251476,1.748575617,Li8S4,0.0558197,174.5347162,,1.43015394,-47.18074812,520,0.0003114
mp-1128,62,3.056450764,12.70654715,Si4Ir4,0,115.1598141,,9.61556862,-62.64217353,520,2.28E-06
mp-1132,225,1.492654084,7.791430667,Cd1O1,0,27.36730794,,1.54783851,-7.91277482,520,7.00E-07
mp-1136,194,29.1209983,2.339054799,Na6As2,0.001218105,204.3017292,,1.24232357,-20.56261137,520,1.15E-05
mp-1138,225,0.659447295,2.530431317,Li1F1,0,17.02215405,,-2.20165144,-9.69028318,520,9.00E-07
mp-1139,194,-1.314878629,9.788203454,Co6Mo2,0,92.5388874,,6.81143923,-64.73931636,520,0.0031327
mp-1143,167,2.456511701,3.873499574,Al4O6,0,87.42000774,,5.85557102,-74.81297524,520,0
mp-1145,191,0.0404655,4.487425376,Ti1B2,0,25.71389777,,8.42847659,-24.42741076,520,1.90E-06
mp-1152,221,1.799938867,10.28225039,Ti1Rh3,0,57.58669553,,6.71161597,-32.44694318,520,0.0001167
mp-1153,225,-0.955023326,1.629551749,Li2S1,0,46.82072068,,0.68198126,-11.96264613,520,0
mp-1156,216,3.524661322,5.28767143,Ga1Sb1,0,60.13327439,,3.77470612,-7.48349749,520,0
mp-1158,221,-7.810289143,12.06983592,Lu1Pd3,0,67.99456375,,4.23613859,-23.87673469,520,0.0302769
mp-1159,140,-16.29172997,7.001340698,Zr4Fe2,0.017275727,113.0340163,,4.42743038,-51.96257848,520,1.26E-05
mp-1161,225,7.959532388,6.370267587,La1Se1,0,56.79103954,,7.85432144,-12.43429444,520,0.0007459
mp-1169,221,0.486639541,5.222539014,Sc1Cu1,0,34.49886354,,5.29730246,-10.97061223,520,2.00E-05
mp-1170,164,15.02681954,3.670089382,Sn1S2,0,82.72631166,,2.48942756,-13.4033375,520,2.26E-05
mp-1172,221,0.794610495,6.911660992,Mg1Rh1,0,30.56255245,,5.02743377,-9.89577024,520,8.87E-05
mp-1174,221,0.642477871,2.471799567,Mg1Sc1,0,46.5290349,,3.52378768,-8.01239647,520,0.0015298
mp-1175,41,7.468583487,2.960341116,Sr2S6,0,206.2140623,,3.58480311,-36.28407262,520,1.06E-05
mp-1180,221,1.980764383,17.43267295,Mn1Pt3,0,60.98092734,,6.78733731,-28.77567784,520,4.3006745
mp-1185,221,0.949005634,10.74057143,V1Rh3,0.007794691,55.60469051,,6.88429588,-32.65565587,520,0.0009826
mp-1186,164,9.38744746,3.307469041,Zr1S2,0,77.99661275,,1.83803428,-21.35985668,520,6.60E-06
mp-1190,216,1.670064848,5.064264572,Zn1Se1,0,47.33764543,,1.29708276,-6.18516607,520,8.84E-05
mp-1194,123,3.764742473,14.47374408,Cd2Pt2,0,70.55637428,,4.69584613,-15.23602387,520,1.05E-06
mp-1201,166,13.67614517,6.121654615,Sb2Te3,1.0167346,169.8934156,,6.1012262,-18.32252304,520,0
mp-1209,191,9.450718826,12.94885543,Rb1Au5,0,137.2535214,,3.32495869,-18.4695123,520,6.50E-06
mp-1211,221,1.380772176,5.855862507,Sc1Cd1,0,44.62432318,,3.54935965,-7.8346266,520,0.002981
mp-1214,194,-1.140692529,4.95239924,V2S2,0.41705891,55.66414465,,6.71913148,-28.62647125,520,1.22146675
mp-1215,164,2.224981961,5.012926765,Ti2O1,0,37.01184587,,7.39560128,-26.157354,520,2.43E-05
mp-1216,225,0.10238052,11.72298899,Yb1O1,0,26.77707061,,1.05033299,-13.05959888,520,3.00E-06
mp-1219,191,4.601754806,5.173339406,Ba1Ga2,0,88.83862737,,2.31026716,-9.36404186,520,0.0027941
mp-1220,216,0.629729786,7.014958451,Be5Au1,0,57.29129836,,5.96574222,-22.4827353,520,2.31E-05
mp-1221,223,-39.51703334,6.916314193,V6Ge2,0,108.2636196,,6.07956887,-66.43498439,520,0.00090615
mp-1222,180,0.388699318,5.03073008,Cr3Si6,0.011407277,107.1111089,,10.93469788,-64.73262798,520,6.00E-07
mp-1224,62,17.55639756,9.849066293,Hg4O4,0,146.0667006,,0.41680181,-23.32090751,520,0.000145275
mp-1229,14,1.954393636,4.75394264,Cu2F4,0,70.9372439,,1.07242536,-24.77053347,520,0.00266015
mp-1231,223,-2.736462085,7.715088995,Cr6Ga2,0,97.16088191,,6.54056721,-64.28717953,520,0.0002295
mp-1232,223,0.563236074,12.66632672,Mo6Pt2,0.065577493,126.6161788,,8.14623281,-78.03276656,520,8.65E-06
mp-1234,227,0.91266415,6.502482434,Lu2Al4,0,116.9237547,,5.80324135,-26.94573468,520,0.00062595
mp-1235,123,2.587401872,13.17171979,Ti1Ir1,0,30.26703127,,8.24597056,-18.45441311,520,8.00E-07
mp-1239,204,18.98040823,8.931917291,Sb12Ir4,0,414.5786411,,7.70041458,-90.42747055,520,0.000123225
mp-1243,167,5.62551535,6.182904919,Ga4O6,0.029409656,100.6835512,,2.62837583,-60.06289326,520,1.95E-06
mp-1247,14,12.12246486,10.56884302,Sb8Ir4,0,273.845793,,8.34738773,-72.93514338,520,1.88E-05
mp-1249,136,0.051360549,3.034475424,Mg2F4,0,68.18613918,,-0.89830813,-31.97427302,520,2.50E-07
mp-1250,194,3.595174642,9.66245666,Lu4In2,0,159.7396743,,4.79253421,-25.55991713,520,0.00276825
mp-1251,123,0.834944973,9.269429043,V2Rh2,0.02192611,55.12075199,,6.64243754,-34.34444842,520,4.50E-07
mp-1252,191,6.669498819,4.428550036,Zr1Be2,0.033676871,40.96401125,,3.26394805,-16.51821344,520,8.74E-05
mp-1253,225,2.752728077,4.805292475,Ba1Se1,0,74.7411337,,1.1018151,-9.51033231,520,0
mp-1259,221,4.769730381,5.333924869,Yb1Al3,0.087687998,79.06961204,,5.27408726,-13.45897302,520,4.40E-05
mp-1260,191,5.069002239,8.926363832,Sr1Pd5,0,115.2842606,,3.47034023,-29.84060843,520,4.80E-06
mp-1264,221,4.982540789,15.58544408,Cd1Au3,0.003957211,74.93369326,,4.55552532,-11.23340111,520,1.50E-05
mp-1265,225,0.223111325,3.471432883,Mg1O1,0,19.27936732,,3.9688196,-11.96804153,520,0
mp-1266,225,0.999513257,2.577943573,Na2Se1,0,80.47770462,,-0.00275235,-9.32670073,520,6.68E-05
mp-1272,223,-3.278280642,8.586720984,Cr6Ru2,0.071134411,99.42219934,,7.27579995,-75.80385304,520,0.00402235
mp-1274,194,-1.1100148,6.063260996,Co2S2,0.193845568,49.84316376,,8.04449369,-23.56031494,520,5.04E-05
mp-1275,223,0.464801806,8.812458874,Si2Mo6,0,119.0526783,,9.37248339,-78.40131858,520,1.10E-06
mp-1278,140,0.748155846,5.972090071,Zr4Si2,0,117.0776367,,5.45424288,-49.71767543,520,2.05E-06
mp-1279,189,2.495059571,13.99558951,Ta3N3,0,69.39250915,,8.18033422,-67.61202893,520,7.33E-07
mp-1281,123,-0.264295718,14.48449902,V2Ir2,0.024040165,55.75259202,,7.98954649,-37.87560822,520,9.95E-06
mp-1282,225,-0.012398056,5.800036221,V1C1,0.088487357,18.02309189,,8.20278228,-19.13098636,520,0.0005945
mp-1285,58,3.198318359,11.24971503,Pt2O4,0,67.03811671,,4.54793686,-34.68791146,520,0
mp-1287,189,13.46015291,1.875647666,K6S6,0,378.0116276,,0.81044419,-42.62495123,520,7.52E-06
mp-1288,88,14.31474869,7.240353766,Ag8O8,0.046960817,227.2673322,,1.66672238,-63.11222984,520,6.88E-07
mp-1294,227,-36.7667779,7.581890939,Y2Co4,0,90.57196408,,4.61502533,-42.44263889,520,0.00058385
mp-1298,191,9.274201298,12.72615182,K1Au5,0,133.60501,,3.24344822,-18.82577117,520,1.30E-05
mp-1299,139,1.023660001,14.62301619,Si1Pt2,0,47.49541795,,8.11694034,-19.70632946,520,2.60E-06
mp-1307,227,2.589884417,4.154638755,Li2Ga2,0,61.28261563,,4.15705552,-11.17408333,520,4.00E-07
mp-1315,225,0.57120701,2.618786896,Mg1S1,0,35.74349094,,4.19272649,-8.58883643,520,6.80E-05
mp-1317,204,4.286643596,7.440823962,Co4Sb12,0,378.6798748,,7.49830443,-80.91400673,520,0.000749075
mp-1319,194,9.122025587,7.371979788,Zr2Te2,0.27630844,98.58024719,,7.5225117,-25.87393316,520,4.35E-06
mp-1326,223,4.028591015,8.694217494,Nb6Sn2,0,151.8127659,,6.59959857,-69.939403,520,0.00058285
mp-1328,227,3.349333406,8.276098537,Sr2Rh4,0,117.7495963,,4.33241715,-34.32156463,520,0.00089175
mp-1329,129,2.715330472,6.775214807,La2Te4,0.001923368,193.1828104,,7.70995646,-30.85305134,520,8.71E-05
mp-1331,191,2.558129515,6.972863192,Y1Cd2,0,74.71211302,,2.9469709,-9.31667851,520,0.0295622
mp-1334,166,1.355240087,4.535818092,Y2C1,0,69.49297778,,3.29679052,-23.03776827,520,0.0002044
mp-1336,131,3.037222571,7.793969394,Pd2O2,0,52.16397003,,3.6073144,-22.02623433,520,4.65E-06
mp-1339,221,1.901229626,18.29711782,Nb1Ir3,0.001045747,60.76509863,,8.63353624,-39.04119786,520,2.80E-05
mp-1340,9,16.58716971,4.767617686,Ga4Se6,0,262.145187,,1.8679326,-38.91424954,520,5.43E-05
mp-1342,225,1.767831259,5.753125432,Ba1O1,0,44.25498385,,1.65463666,-11.82714503,520,0
mp-1345,189,1.617340031,2.433608247,Ca6P6,0,290.8871421,,4.21899991,-57.58148092,520,2.08E-06
mp-1346,166,0.279743123,2.596067893,B12O2,0,103.4488767,,5.08041009,-99.93559954,520,3.15E-06
mp-1349,227,6.925491139,12.90723421,Sr2Pt4,0,122.9365817,,5.40548688,-32.75472197,520,1.40E-05
mp-1352,225,0.675351013,7.098981799,Zr1N1,0,24.61475329,,7.36034788,-20.2404712,520,2.70E-06
mp-1356,205,13.52658211,8.215814034,Sb8Pd4,0,282.912456,,7.22997601,-57.86732793,520,2.18E-06
mp-1357,204,8.014166033,4.96535319,P12Rh4,0,261.9576178,,7.83250302,-103.6421973,520,2.05E-06
mp-1359,123,2.097189905,14.60515704,Nb2Ir2,0,64.83442833,,7.17616336,-39.96005386,520,2.85E-06
mp-1364,62,-0.011058299,6.058789148,Y4Ni4,0,161.8107585,,4.69500628,-52.46495627,520,2.15E-06
mp-1367,225,-0.165056178,1.975369669,Mg2Si1,0,64.47191833,,4.21523571,-9.09202809,520,6.80E-06
mp-1373,223,-43.27298879,8.41883272,Nb6Ge2,0.071077013,138.6048609,,5.1860757,-72.08474779,520,0.00067905
mp-1384,191,3.195025704,16.75805943,La1Ir5,0.082095731,108.9969353,,8.50104301,-50.9271786,520,1.09E-05
mp-1391,164,2.168618899,8.309681343,Ag2F1,0,46.90749123,,1.95053509,-9.68387413,520,0.000195
mp-1393,68,33.97441629,8.448027676,Sn8Au2,0,264.0997586,,7.31216169,-39.39340841,520,5.45E-06
mp-1394,225,4.223523005,3.817390729,Rb2O1,0.003023537,81.31545536,,0.88064581,-9.61172366,520,3.20E-05
mp-1395,221,0.667410422,9.212917721,V1Ru1,0,27.39859813,,7.77114021,-18.82293056,520,0.6485694
mp-1397,62,124.8221915,3.443577254,Rb8Te4,0.019139858,575.8314475,,0.45092439,-32.15294902,520,2.39E-05
mp-1399,11,6.553651734,10.54235149,Al4Au4,0,141.0973922,,6.72171325,-31.22722509,520,1.60E-06
mp-1400,227,1.213803702,16.35379852,Hf2W4,0,110.9144895,,5.65414635,-72.7808024,520,4.00E-06
mp-1401,227,0.853096465,7.229957404,Zr2Zn4,0,101.9949051,,3.55598769,-23.9508987,520,1.92E-05
mp-1404,51,5.894116632,13.12843993,Cd2Au2,0.004979766,78.26269291,,3.98557037,-9.08093161,520,4.95E-06
mp-1406,225,-5.437703304,6.311655672,Mn1Te1,0.054411852,48.02409475,,6.30831895,-12.37801442,520,4.5659355
mp-1407,148,16.17210454,7.018210105,Rh3Se8,0,222.5019026,,5.36259586,-54.24027214,520,0.0001972
mp-1408,221,2.08018457,8.713422391,Mg1Hg1,0,42.85881146,,3.98628711,-2.34854204,520,2.00E-07
mp-1409,194,-0.269664618,7.958129933,Ti4Ni12,0,186.9148012,,8.07056913,-108.6617683,520,6.35E-06
mp-1412,223,0.119402676,6.204948373,Ti6Sb2,0,142.0293204,,7.83856568,-58.66064912,520,0.0119305
mp-1413,58,1.914279638,6.117526756,P4Ru2,0,88.49882431,,8.02228908,-43.84421972,520,4.10E-06
mp-1415,225,1.182704814,3.725958844,Ca1Se1,0,53.05137671,,2.35032953,-9.54626754,520,2.11E-05
mp-1418,221,-13.78988479,8.700534582,Fe1Ni3,0,44.26404439,,7.40273603,-26.17720061,520,4.741954
mp-1424,62,7.295177033,8.924258463,Ge4Pd4,0,133.2709588,,5.02577021,-42.8816683,520,1.25E-07
mp-1425,227,-2.707138459,6.23740783,Ti2Cr4,0,80.85670748,,6.16430443,-55.02775013,520,1.23E-05
mp-1431,198,-17.42538149,5.960930551,Mn4Si4,0,92.51162149,,9.19314079,-62.06274123,520,0.001241675
mp-1432,225,-1.491382766,2.007121087,Be2B1,0.053707773,23.85618286,,3.84961056,-14.03417941,520,0.0001001
mp-1434,160,9.595482028,4.242702509,Mo1S2,0,62.64933343,,4.40066461,-21.71006716,520,0.0003843
mp-1437,227,1.552298459,5.162727797,Li2Cd2,0,76.77672087,,1.46014515,-6.66170637,520,1.41E-05
mp-1439,60,4.135353856,4.20027994,Ti4O8,0.031387159,126.2966095,,3.08821126,-107.3037386,520,5.98E-06
mp-1451,59,-24.73565286,8.950271221,Nb2Ni6,0,99.80987308,,7.27915881,-57.20851767,520,2.15E-06
mp-1455,205,-14.37742449,4.693997856,Mn4S8,0.110674921,168.4850681,,5.96005107,-74.89948483,520,4.584247225
mp-1458,223,4.108109125,11.22804385,Nb6Ir2,0,139.2954742,,6.13849777,-81.51804337,520,5.11E-05
mp-1459,187,0.375613701,14.76385369,Ta1N1,0.027424958,21.92718093,,8.07121722,-22.48249306,520,2.87E-05
mp-1460,166,20.05185727,5.019350655,Rb2Ga14,0,379.478155,,2.58370145,-46.00516563,520,7.00E-07
mp-1463,227,2.509977573,14.96894776,La2Ir4,0,116.1104488,,9.62793363,-49.65654463,520,1.50E-07
mp-1471,221,0.855634232,5.913586039,Zr3Al1,0,84.42372108,,4.98279291,-30.58851267,520,1.91E-05
mp-1472,191,0.406119541,6.033103276,Zr1B2,0,31.05950287,,7.08187477,-24.88009819,520,3.00E-07
mp-1473,166,-0.530158012,14.58918333,Fe7W6,0,170.0417731,,6.52908027,-137.3307883,520,0.0030083
mp-1476,225,0.609438954,3.593258603,Sc1S1,0,35.59338344,,7.52071685,-14.20374753,520,0.0002204
mp-1479,216,0.198157333,2.952601408,B1P1,0,23.49969365,,7.45038957,-12.90767439,520,0
mp-1481,221,17.86005498,6.870181873,Sn1Te1,0.240189545,59.53370355,,7.03295983,-7.24253665,520,2.05E-05
mp-1483,198,3.680483322,8.224433915,Si4Rh4,0.032271344,105.7899773,,9.57004719,-57.42228784,520,6.75E-07
mp-1486,221,-0.633304897,8.545334547,Zn1Ni1,0.024481275,24.11571823,,5.45284094,-7.50047553,520,2.30E-06
mp-1487,221,2.145541021,5.90693383,Al1Ni1,0,24.08467479,,9.25899703,-10.8480268,520,0.00046
mp-1491,191,-0.208447435,5.108568179,V1B2,0,23.58675081,,8.92551626,-24.66334274,520,1.40E-06
mp-1492,152,31.20053172,6.147821274,Cd3Te3,0.107485332,194.4823789,,2.83896152,-14.30167298,520,1.37E-06
mp-1497,191,2.614857278,13.81096617,Ta3N3,0.447111247,70.32013993,,7.80473923,-64.92936145,520,5.73E-06
mp-1500,225,2.15072636,4.178929088,Ba1S1,0,67.3095961,,1.36224976,-10.21249155,520,0
mp-1501,55,10.07101894,14.70581529,Al6Pt10,0,238.563405,,8.65345195,-97.66457966,520,1.25E-06
mp-1502,225,4.868217232,7.858009346,Al2Pt1,0,52.62813726,,6.75375473,-16.24253099,520,7.00E-06
mp-1507,63,31.63540609,9.059466414,Hg2Te2,0.168405825,120.3100233,,3.82156914,-6.89298162,520,1.79E-05
mp-1519,225,1.257293478,4.254119184,Ca1Te1,0,65.45088493,,3.60302353,-8.44586617,520,4.28E-05
mp-1522,58,-0.225629756,4.893651265,Fe2S4,0,81.42107418,,7.62732863,-36.46776679,520,0.00080505
mp-1523,62,2.361122305,5.019216198,Zr4P8,0,202.6988162,,7.69156187,-89.02385981,520,9.75E-07
mp-1526,123,2.761320865,10.84609434,Ti2Hg2,0.056760213,76.07762486,,4.91091341,-16.440951,520,0.0001795
mp-1529,221,0.861233666,16.13568157,Lu1Ir1,0,37.78727067,,5.81877033,-15.37983566,520,0
mp-1534,225,1.238002812,4.722345295,Y1S1,0,42.53751189,,6.6988807,-14.58618348,520,6.27E-05
mp-1536,14,56.20086874,3.351462528,K8Sb8,0,637.5998175,,2.32513237,-48.80386203,520,3.53E-05
mp-1539,187,1.378515285,7.455419654,Zr1Te1,0,48.73847641,,7.46740646,-13.48958346,520,5.90E-06
mp-1541,216,0.721688499,4.194882841,Be1Se1,0,34.82367641,,2.75670058,-8.82045458,520,0
mp-1542,191,-0.784360208,5.045298472,Y1B2,0,36.37759212,,5.07827412,-21.51835809,520,3.45E-05
mp-1543,58,5.16748631,10.32070654,Ge4Pt2,0.003499289,109.5250035,,4.74589272,-32.66247255,520,1.28E-05
mp-1545,223,5.656286681,9.086567833,Nb6Rh2,0,139.4811826,,5.48308414,-77.38498282,520,1.03E-05
mp-1547,160,11.03671843,5.477143524,Ni3S3,0.015377377,82.54733462,,7.74504152,-31.87136526,520,0.0001417
mp-1550,216,1.263393647,2.304784495,Al1P1,0,41.75533089,,4.35260383,-10.37842077,520,0
mp-1552,60,2.259600693,8.94398962,Mo8C4,0,151.4172004,,8.68169207,-125.0358736,520,2.00E-06
mp-1554,189,3.760170284,3.147462458,K6Te6,0.000166266,527.6803878,,1.3292363,-35.56943142,520,2.78E-05
mp-1555,223,-0.292515408,7.587413162,V6Sb2,0,120.1880726,,8.2515546,-64.47293945,520,2.08E-05
mp-1558,227,-38.2828124,7.960833373,Sr2Pd4,0,125.3450579,,3.9720958,-27.96583625,520,1.18E-05
mp-1560,225,1.65657641,6.483074495,La1Te1,0,68.26124513,,8.15706382,-11.27799507,520,0.0003596
mp-1564,227,8.808620554,6.674099995,Na2Tl2,0,113.1424038,,4.14737604,-7.82118623,520,4.35E-05
mp-1565,225,1.662388694,5.992209086,Zr1O2,0.070035015,34.14705113,,3.82079134,-28.30355219,520,0
mp-1569,225,-0.172873545,2.461261627,Be2C1,0,20.26375246,,6.33825956,-17.40138766,520,0
mp-1570,227,-31.60046738,6.872992559,Y2Fe4,0,96.92931786,,4.46215717,-47.25655234,520,3.2504001
mp-1572,187,31.71217708,4.391990686,Ga4Se4,5.60E-06,224.858333,,1.23254864,-30.81566565,520,2.40E-06
mp-1575,15,0.490104173,2.169018735,Ca2C4,0.022787344,98.14535431,,0.90138428,-40.80880838,520,3.12E-05
mp-1578,223,-0.178781341,7.762254122,V6Rh2,0,109.4140032,,6.45168761,-71.75699517,520,2.42E-05
mp-1580,225,0.937497076,8.04521323,Nb1N1,0.202230325,22.06695312,,8.2847902,-20.16765311,520,8.00E-06
mp-1581,14,47.58370189,3.467562172,As8O12,0,378.9675306,,0.41309585,-120.8843008,520,4.19E-05
mp-1582,14,55.20660832,3.616819426,As8O12,0.006539067,363.3284715,,0.26941829,-120.7535194,520,3.19E-05
mp-1585,223,-1.493407527,6.985025708,V6Co2,0,100.6816393,,6.09122082,-70.25093286,520,5.16E-05
mp-1588,12,66.21083137,1.721013313,C22F14,0.367645988,511.5820161,,-0.50469179,-248.0931595,520,1.07E-05
mp-1589,194,-8.255566573,6.224612735,Ti4Cr8,0.014360527,162.0458274,,6.18634297,-109.8831739,520,8.53E-05
mp-1591,166,1.648897203,2.93080294,Al4C3,0,81.56409915,,7.33543648,-43.30832788,520,3.36E-05
mp-1594,194,-28.34338688,8.902834154,Ni4Ge2,0.028057955,70.88684673,,7.69535963,-34.02839129,520,0.00021535
mp-1598,194,2.917858005,1.751780831,Na6P2,0,189.4750374,,1.48542716,-21.41949779,520,6.35E-05
mp-1601,123,1.421882914,14.56269279,Ta1Ru1,0,32.15763091,,7.35858283,-21.77725713,520,2.50E-06
mp-1604,223,7.659764235,11.85587665,Pt6O8,0,181.8683409,,3.95582327,-82.04266814,520,1.45E-05