,band_gap.optimize_structure_gap,delta_volume,density,e_above_hull,efermi,encut,final_energy,full_formula,hse,spacegroup.number,structure.lattice.volume,total_magnetization
mp-762,,15.005942842700613,6.203727452780186,0.0,2.77955462,520.0,-15.37524965,Pt1S2,2.2419759999999997,164.0,69.38328125966616,2.34e-05
mp-763,,-0.14099834135573275,2.6373009539155174,0.0,5.97563269,520.0,-15.35037059,Mg1B2,0.0,191.0,28.917282412101606,9.6e-06
mp-766,,3.72647695489232,8.051427197454801,0.0,6.16777869,520.0,-39.55065024,As4Ru2,0.960224,58.0,103.49746797264433,2.86e-05
mp-771,,-0.9721484209898961,5.127963341752469,0.0,7.23706607,520.0,-26.86917742,Mn2Al2,0.0,123.0,53.05446144701011,0.07362455
mp-774,,-2.7037854868702027,6.747575083828467,0.002400432222222193,5.91705348,520.0,-31.55204639,Ca1Ni5,0.0,191.0,82.08348735892035,0.0031876
mp-776,,1.52359153303658,6.833367333359163,0.0,5.65509251,520.0,-6.51698522,La1Cd1,0.0,221.0,61.07103415803657,0.0463321
mp-782,,3.962313564495446,7.914048903917577,0.0,6.77189296,520.0,-12.473601510000002,Te2Pd1,0.0,164.0,75.87571607594576,7.49e-05
mp-786,,0.4702671023022873,7.180431897780176,0.0,7.26638109,520.0,-26.70881685,Mn2Sb2,0.0,194.0,81.7260037254543,3.19910225
mp-788,,-0.2223650182063892,8.825965729955048,0.09146832999999788,8.93960259,520.0,-20.73404952,Co2Te2,0.0,194.0,70.18963409344902,2.595e-05
mp-790,,2.359002176359695,18.616376766951895,0.0,6.05781028,520.0,-27.0737654,Lu1Pt3,0.0,221.0,67.80982917635971,0.0001216
mp-796,,2.2929922636391495,7.157296470318037,0.07017270721428481,5.522332,520.0,-69.47989507,Nb6Al2,0.0,223.0,141.84906646663916,0.00046985
mp-799,,-3.6351433980844092,4.01059956175803,0.0,6.04935211,520.0,-101.7741441,V6S8,0.0,176.0,232.75910676272105,1.3e-05
mp-801,,2.630807894838057,12.676170602279893,0.016440933750001108,8.33306058,520.0,-87.48209636,Mo6Os2,0.0,223.0,125.24613512683806,1.655e-05
mp-804,,-1.9605690018778361,5.923649830139919,0.0,3.47190466,520.0,-24.62981616,Ga2N2,2.9314419999999997,186.0,46.94282735959896,0.0
mp-810,,0.556732396454052,8.564297877437214,0.0,9.27309777,520.0,-20.88297132,Ni2Sb2,0.0,194.0,69.97652811450396,0.0001489
mp-811,,5.866686216537786,15.437762330949756,0.0,5.17687723,520.0,-35.11083621,Ba1Pt5,0.0,191.0,119.69091086721005,9.85e-05
mp-813,,-0.16022853476016508,3.0097503612040857,0.0,6.41483814,520.0,-30.56228797,Sc2Al4,0.0,227.0,109.1511412250315,0.00017675
mp-815,,-0.40841915345883706,8.937909881510558,0.0,7.17045582,520.0,-21.49700038,Ga1Ni3,0.0,221.0,45.66680747154116,0.7896173
mp-818,,4.2827709711469595,7.7639597686959005,0.0,8.48919515,520.0,-57.68045859,Si4Rh4,0.0,62.0,112.06429495714696,7.75e-07
mp-819,,-2.1022212001551708,10.507990012752723,0.0,5.63604566,520.0,-59.14403060000001,Hf2Cr4,0.0,227.0,89.27924762696028,2.93e-05
mp-820,,5.41055713689078,7.517549947926424,0.0,0.89311123,520.0,-4.21279593,Hg1Se1,0.0,216.0,61.749332142454456,0.0
mp-825,,3.2622224316651085,6.818949299048126,0.0,4.61351624,520.0,-44.3028677,Ru2O4,0.0,136.0,64.80937977843512,2.15e-06
mp-827,,-49.79689779174146,1.907936613292607,0.0,-0.32409185,520.0,-53.39708419,K2N6,5.398727,140.0,141.19994251787853,4.95e-06
mp-828,,-0.7677409947297349,7.920800232690012,0.0,9.62039689,520.0,-24.5923361,Si1Ni3,0.0,221.0,42.80187676994227,0.0103724
mp-829,,0.7762743069686238,7.599548117016158,0.03303135730769213,7.75339724,520.0,-10.68310461,Al1Pd1,0.0,221.0,29.148899306968616,5.18e-05
mp-830,,0.6992262338151924,5.921363526725961,0.005218160000000083,3.41642234,520.0,-12.30447176,Ga1N1,2.7513900000000002,216.0,23.48047625009842,6e-07
mp-833,,3.9884486836950828,7.205482834744288,0.0,4.21397716,520.0,-28.96003436,Ca2Pd4,0.0,227.0,116.57239981021326,1.85e-06
mp-838,,-8.338990328139175,8.76466051715203,0.07737183375000001,8.5486552,520.0,-16.05055837,Cu3Sn1,0.0,225.0,58.608594131017796,1.3e-05
mp-841,,-0.3074624789166762,2.2580679684920093,0.0,1.37444888,520.0,-38.71306306,Li4O4,4.107256,194.0,67.47968674947492,0.0
mp-842,,5.556328775183104,12.402000929126489,0.0,5.73263014,520.0,-33.87804852,Ca2Pt4,0.0,227.0,115.21371170452898,3.35e-06
mp-850,,-18.619104807930682,6.624089500188937,0.0,6.73333916,520.0,-38.92387328,Sc2Ni4,0.0,227.0,81.39274420364863,2.555e-05
mp-856,,4.7354353290941305,6.6088674336338125,0.0,5.56143112,520.0,-37.70087542,Sn2O4,1.960767,136.0,75.73395852909412,5.43e-05
mp-861,,-1.000260774900397,12.848548185777362,0.004194058333334638,5.51607832,520.0,-53.42844663000001,Hf4Ni2,0.0,140.0,107.44278631473644,4.2e-06
mp-865,,0.2629075148368827,2.4379946913203705,0.0,4.77816506,520.0,-44.93692868,Ca1B6,0.42480100000000004,221.0,71.47825613983687,1.5e-05
mp-870,,9.82387190175504,5.449008726606365,0.044648178215000556,2.16096749,520.0,-52.09206321,Tl2N6,2.7266220000000003,140.0,150.17867866163675,3.75e-06
mp-871,,-4.028286960170519,6.325407629913122,0.0,9.56317383,520.0,-59.62845563,Fe4Si4,1.204433,198.0,88.13336945282951,1e-07
mp-875,,0.35283515963375933,13.121633030810727,0.007936356249999221,8.57052649,520.0,-15.79602866,Al1Os1,0.0,221.0,27.488060284633757,0.0002798
mp-879,,8.13378302159748,6.776267027451007,0.0009521083928598628,8.57479664,520.0,-77.21318837,La6Te8,0.0,220.0,454.38380370578653,0.0061291
mp-882,,4.887382190418492,4.681534514533204,0.011398985714285104,6.16683095,520.0,-115.93472813,Ti12O2,0.0,162.0,215.09091094797049,6.22e-05
mp-888,,6.035329823057566,3.5657794763960773,0.0,3.4292161,520.0,-53.01847293,Ca6As6,0.0,189.0,321.3232786521975,6.666666666666666e-07
mp-891,,-0.18302318001332196,12.033462404785377,0.0036533187500005226,7.58874971,520.0,-61.23655323,Ta2Ni6,0.0,59.0,98.53507581998667,1.76e-05
mp-892,,1.251160484320451,11.00577814377765,0.0,6.23382579,520.0,-14.82861584,Sc1Pt1,0.0,221.0,36.21694348432045,8.23e-05
mp-893,,2.5399213319106195,5.553718455703797,0.0,6.88098681,520.0,-63.36429424,Zr4Si4,0.0,62.0,142.69220463591063,5e-06
mp-894,,1.1089913957485251,14.742528138282449,0.0,5.42894942,520.0,-16.92330307,Zn2Pt2,0.0,123.0,58.68176639574852,5.15e-06
mp-899,,1.6649233541278292,10.59400875607557,0.0,9.10321802,520.0,-10.93022364,In1Rh1,0.0,221.0,34.12668235412783,0.0007184
mp-900,,5.95689062643261,8.658113162175018,0.1084554033333367,6.27595497,520.0,-22.62821413,Rh2Se2,0.0,194.0,69.75994818327261,6.4e-06
mp-902,,1.4419171332340568,4.808578672897678,0.0,2.01609665,520.0,-3.52550476,Ba1Zn1,0.0,221.0,70.01050949023404,1.79e-05
mp-903,,-27.356993147597237,7.109105124794589,0.0,5.34397217,520.0,-55.90813211999999,Zr2Cr4,0.0,227.0,91.19688502280079,1.665e-05
mp-910,,6.797551099586897,7.616101800034238,0.03968737260416688,7.38752882,520.0,-20.25034011,Nb1C1,0.0,225.0,22.87507597417093,2.72e-05
mp-912,,5.156801441835256,14.431597862987436,0.0,8.93993484,520.0,-40.59615162,La2Pt4,0.0,227.0,121.75327504329498,5.8e-06
mp-915,,-0.4981139159610919,6.302811066910973,0.0,3.13934255,520.0,-8.09658273,Y1Cd1,0.0,221.0,53.038951237144204,0.0060449
mp-917,,-1.2873972309448902,2.1628565478416544,0.022021450833334733,0.82041206,520.0,-40.81340374,Ca2C4,3.5676089999999996,12.0,98.42497991537492,2.57e-05
mp-921,,3.673801112020783,9.00960696136978,0.0,5.51441516,520.0,-46.77056224,Y2Rh4,0.0,227.0,108.6371108682458,3e-07
mp-925,,4.369504935097288,6.146477474168107,0.19112632999999946,8.95477595,520.0,-19.36039987,V1N1,0.0,225.0,17.54647635674037,3.93e-05
mp-927,,0.8553059462468582,4.285587372708302,0.0,6.81346148,520.0,-61.03655979,Cu4P8,1.6652069999999999,14.0,194.5001958856208,1.52e-05
mp-929,,-1.1167983684393619,8.422442421148869,0.0,5.40529037,520.0,-47.3900227,Zr2Co4,0.0,227.0,82.4470475718527,0.00381325
mp-930,,0.6432835994607942,5.449689033506351,0.04608879249999909,6.86363934,520.0,-16.62181597,Zr1P1,0.0,225.0,37.23407944087275,4.39e-05
mp-932,,1.2468882936473307,6.026909057002062,0.0,4.65109973,520.0,-17.39638876,Sc1Ga3,0.0,221.0,70.01670896664736,2.6e-06
mp-933,,0.5422437410001422,5.473715587275942,0.0,3.99800199,520.0,-14.22770781,Y1As1,0.0,225.0,49.699673322638375,1.27e-05
mp-934,,1.891428757769802,8.34836737359107,0.0,4.85477892,520.0,-4.73704087,Li1Tl1,0.0,221.0,42.0336377817698,6.79e-05
mp-936,,11.880424235091354,12.717347560422136,0.0,2.34791789,520.0,-7.75948629,Hg4Pt1,0.0,229.0,130.23900576314682,2.7e-06
mp-938,,2.872504597273455,5.909651479586358,0.0,4.78166913,520.0,-7.94716781,Ge1Te1,1.080095,160.0,56.264965627528596,0.0001006
mp-943,,-7.275182533377858,5.046238510565676,0.0,6.15142796,520.0,-81.68435548,Co6S8,0.0,227.0,200.76869111837254,0.0005145
mp-944,,-0.10335138139227595,3.14766603591306,0.012297059599998938,10.13272501,520.0,-17.23555794,Al1B2,0.0,191.0,25.640608757922283,3.7e-06
mp-945,,1.175654358185021,15.715335783676071,0.0,7.41506782,520.0,-24.05871059,Ni2Pt2,0.0,123.0,53.630070139185015,3.64e-05
mp-947,,26.37736724719032,9.253936707932642,0.0,1.3318337,520.0,-21.7779418,Au4S2,3.003052,224.0,152.8833752471903,0.0
mp-948,,8.185359145494346,6.671812277816454,0.28752664500000025,4.77620767,520.0,-4.77639457,Zn1Te1,0.0,225.0,48.03776938344144,8.2e-06
mp-953,,0.6975950069606824,7.802323870597675,0.0,3.36110023,520.0,-14.52627166,Nb1Zn3,0.0,221.0,61.53516224396067,1.5e-06
mp-954,,0.6645325824534183,4.281989359501503,0.0,4.24028898,520.0,-44.86281643,Ba1B6,0.367861,221.0,78.4096694144534,1.31e-05
mp-958,,-2.3586729446171546,8.619543327304141,0.10471022000000119,6.95285327,520.0,-72.0221573,Cr6Rh2,0.0,223.0,99.75082107938287,0.0432608
mp-959,,0.9304834174925531,4.087710031789153,0.0,7.093013,520.0,-35.90839127,La2Al6,0.0,194.0,178.61817378394719,2.18e-05
mp-960,,1.500501182771547,7.328280167595664,0.16001012833333483,10.03801357,520.0,-25.03551505,B2Mo1,0.0,191.0,26.638759184411548,4.1e-06
mp-963,,5.099863149693064,6.5089244355345315,0.10413902083333682,4.29463414,520.0,-112.80496069,Zr4O8,4.353631,62.0,125.74505790913108,4.865e-05
mp-971,,1.2160786492110987,2.2911765936853605,0.0,0.39826175,520.0,-10.2251862,K2O1,2.9725639999999998,225.0,68.26891294321595,3e-07
mp-972,,-1.7206422142504607,5.6145146911187185,0.015381347499999976,4.81675064,520.0,-13.33851339,Mn1Se1,0.755139,225.0,39.6014514760979,4.6655844
mp-977,,3.995171620668657,8.800732568107708,0.0,7.22613931,520.0,-14.02107656,Lu1In3,0.0,221.0,98.00534694366864,8.4e-06
mp-978,,8.198403962155112,4.2121741727851045,0.0,3.27561212,520.0,-37.02216149,Sr8Sn4,0.591246,62.0,463.52826904615506,4.95e-06
mp-981,,1.6815808163894275,4.133835590503156,0.0,-1.8823879,520.0,-17.2859187,Sr1F2,8.516805999999999,225.0,50.45958082767698,0.0002078
mp-983,,12.897363144936179,7.633282912027628,0.03276583333332894,6.11425619,520.0,-62.127327699999995,Rh4Se8,0.0,205.0,226.95918931293622,9.7e-06
mp-984,,5.631640963880777,1.956241324283756,0.0005679299999989951,1.20728156,520.0,-35.14819535,B2N2,5.613981,194.0,42.13259296942478,0.0
mp-987,,0.1750330606320034,8.252026083763557,0.016788027812499884,5.10275998,520.0,-5.52293727,Zn1Cu1,0.0,221.0,25.949361978451005,1.39e-05
mp-988,,3.2094577584659874,3.1341774616660714,0.0,6.58164385,520.0,-114.54522380999998,Si6N8,2.9910400000000004,176.0,148.64882359673544,0.0
mp-992,,0.29318321846496076,4.245896219859361,0.035550370000000164,2.84429567,520.0,-9.51586497,Ca1Ga2,0.0,191.0,70.21052686653616,2.93e-05
mp-994,,0.30735963571630975,4.34581095693741,0.0,4.44361262,520.0,-15.13060237,Y1P1,0.0,225.0,45.806128660124195,3.1e-06
mp-996,,6.4638563058357335,11.22797574338105,0.0,5.23518162,520.0,-47.54105333,Os2O4,0.0,136.0,65.73216876245763,1.82e-05
mp-998,,-0.07689958049132883,4.382046075952916,0.021497995000001602,7.82634909,520.0,-24.119802209999996,Al4Cu2,0.0,140.0,89.0581280355622,0.00185465
mp-1001,,4.995641150850986,4.760885628930177,0.0,3.78539615,520.0,-40.24794401,Ba2N4,0.0,15.0,115.3374436978068,6.45e-06
mp-1004,,-6.5609183738668975,7.479894880667599,0.25290760095237985,6.18832116,520.0,-36.64267873,Nb3Si1,0.0,221.0,68.11072755713312,0.0002859
mp-1005,,-2.7079228737713663,6.371739350350293,0.0,9.16413268,520.0,-60.26685989,Fe4P4,0.0,62.0,90.50335287022862,0.000643225
mp-1008,,1.5802297970764556,13.747386687287095,0.2234521250000001,5.30422985,520.0,-11.2757205,Ni2Hg2,0.0,221.0,62.63738962432584,1.85e-05
mp-1010,,0.13232384530927277,4.4333168061088255,0.018557879999997695,7.77356141,520.0,-37.22505932,Mn1B4,0.0,71.0,36.77497591078645,0.5495853
mp-1014,,0.8665877636778987,7.68476523842922,0.0015996675000007343,5.47754954,520.0,-109.68359257,Zr4Mn8,0.0,194.0,173.81639648410152,0.003313325
mp-1017,,2.9767697954724213,6.606179112018611,0.004293210000001935,4.93465115,520.0,-72.13350095,Zr6O2,0.0,182.0,145.62447076142817,5.5e-07
mp-1019,,-34.29036794421525,7.419684465964606,0.0063527470588233825,6.05475485,520.0,-38.57487577,Y2Ni4,0.0,227.0,92.33734953593375,2.095e-05
mp-1020,,2.00877099450026,13.660787261030858,0.0,6.80622547,520.0,-36.35069598,Ta1Rh3,0.0,221.0,59.52122699450025,3.7e-06
mp-1022,,2.3882264801361117,1.7608212169839035,0.0,-0.39446425,520.0,-9.52224062,K2S1,3.2338560000000003,225.0,103.98198843065039,7.8e-05
mp-1024,,26.16320928443973,4.26921482758608,0.007034551666666999,3.70033156,520.0,-25.38456351,Ca2Ge4,0.0,166.0,144.19241373728406,3.4e-06
mp-1027,,1.9145656090839083,13.104403495332615,0.0,6.20291865,520.0,-35.03425122,Hf1Rh3,0.0,221.0,61.73691264008391,0.0002076
mp-1029,,2.4274560802122167,4.694961765556264,0.0,-2.25606097,520.0,-17.30985702,Ba1F2,8.206362,225.0,62.009456031024406,0.0
mp-1030,,5.388681322283901,18.866555144477474,0.007161860312500323,8.11176363,520.0,-47.38866018,Sb1Pt7,0.0,225.0,130.90887028143382,0.0011702
mp-1032,,-6.972128400196212,14.977237718301096,0.038026915833336616,6.37134472,520.0,-63.91985236000001,Ta4B2,0.0,140.0,82.64462874828601,3.65e-05
mp-1033,,-0.40799249455276154,6.359072960002243,0.0,7.20539835,520.0,-10.44322851,Be1Ni1,0.0,221.0,17.67989813044724,0.0106025
mp-1038,,-2.3567944337270887,5.81611555370587,0.0,5.72688565,520.0,-20.4546476,Mg2Cu4,0.0,227.0,86.44966789860092,4.335e-05
mp-1039,,6.259814287868011,3.648790259890499,0.0,2.01381354,520.0,-12.99041779,Mg2Te2,3.230841,186.0,138.261815508557,4.475e-05
mp-1042,,1.713872929747538,9.983667667798056,0.0,7.47549123,520.0,-68.08356497,Hf4Si4,0.0,62.0,137.43513661374752,3.8e-06
mp-1043,,-7.002052294796144,9.514935305326627,0.02887552333333332,5.1011224,520.0,-56.081780050000006,Hf2V4,0.0,227.0,97.86095171898552,0.00084145
mp-1047,,1.0695102532510532,2.666963754268679,0.013622313749999115,2.64541163,520.0,-53.13074064,Ca6N4,1.6198350000000001,167.0,184.60737974746084,3.23e-05
mp-1048,,-11.729782958007924,6.41298467576373,0.0010940974999993358,6.99877288,520.0,-28.9382568,Ti2Ni2,0.0,11.0,55.18419683326096,1.95e-06
mp-1049,,9.544599602574863,4.2951744816843584,0.0,2.73911993,520.0,-51.0222703,Sr6As6,0.592145,189.0,377.03707764377435,9.333333333333333e-07
mp-1050,,-2.7667579884441693,4.843491590877061,0.0,6.77887346,520.0,-72.86419548,Ni6S8,0.0,227.0,208.6795337864499,6.25e-05
mp-1052,,7.243184095210779,10.951815657761003,0.0,3.28733183,520.0,-17.8954391,Na2Au4,0.0,227.0,126.42958680885573,3.05e-06
mp-1055,,6.108391297997905,6.693511840707381,0.14577069499999995,2.25283521,520.0,-5.36747157,Cd1Se1,0.0,225.0,47.47567856550718,1e-06
mp-1057,,-0.06465766036561149,4.767798505048898,0.0,7.86325458,520.0,-25.85786067,Al3Ni2,0.0,164.0,69.07528882473089,3.22e-05
mp-1058,,2.3053393414020036,5.61688276719383,0.02533955944444699,0.91566461,520.0,-24.38351557,Pd2F4,2.126872,136.0,85.38890875912999,0.03604905
mp-1065,,5.898926203058878,6.1356966139572275,0.0,6.50075774,520.0,-11.59336321,La1Sb1,0.0,225.0,70.54540283662828,0.0004852
mp-1066,,2.691263066792935,10.384601952826868,0.320516888124998,1.31994987,520.0,-10.89711683,Yb1N1,0.0,225.0,29.90950920065046,0.9969075
mp-1068,,1.0456922999961193,4.347611516658855,0.005079797499998762,6.16842865,520.0,-50.57692359000001,Cu4S8,0.0,205.0,195.05973029896714,8.8125e-05
mp-1070,,7.7631285847924545,5.301027404742621,0.001059184999999907,0.5013296,520.0,-11.31378918,Cd2Se2,1.1872530000000001,186.0,119.89336872302735,3.215e-05
mp-1073,,0.8561150928973191,4.408704882947305,0.0,2.42637171,520.0,-3.65013443,Ca1Cd1,0.0,221.0,57.43499381189732,7.59e-05
mp-1076,,0.17408515811175107,2.2888064521424014,0.0,2.2028364,520.0,-41.36474431,K1B6,0.0,221.0,75.42655201564904,8.2e-06
mp-1077,,0.7319360011397151,7.467945326166237,0.0,8.36765605,520.0,-46.97175851,B4Ru2,0.0,59.0,54.562492626139715,6e-07
mp-1078,,11.068417903000125,5.658778716715326,0.007650567499999594,2.70755332,520.0,-19.31921519,Ca4Cd8,0.0,194.0,310.9340822228363,1.975e-06
mp-1082,,1.2877260633310215,18.414330362491913,0.020412867500001042,9.07983539,520.0,-37.58728359,V1Ir3,0.0,221.0,56.594067063331025,5e-07
mp-1084,,0.05402872683303883,3.6088517825973283,0.017219714102565398,6.84499347,520.0,-91.44150784,Zr1B12,0.0,225.0,101.66836606910297,4.5e-06
mp-1086,,0.2682747985358169,14.234271731733658,0.0,8.22509744,520.0,-22.23717116,Ta1C1,0.0,225.0,22.510126350801247,3.83e-05
mp-1087,,1.2169072862460268,3.5660532264451006,0.0,1.81671668,520.0,-10.11311164,Sr1S1,3.497046,225.0,55.731533542061,0.0
mp-1089,,0.9200510129522428,17.774775932101306,0.0,8.72922801,520.0,-37.34632276,Ti1Ir3,0.0,221.0,58.34315572495225,4.33e-05
mp-1090,,-2.7628081147700954,7.096054328087113,0.19460630499999976,6.11260585,520.0,-24.2225849,Fe2Se2,0.285645,194.0,63.09110808274859,2.3081014
mp-1099,,2.0437133178975273,7.9859607218613125,0.0,6.40651994,520.0,-44.05114431,Ni4Ge4,0.0,62.0,109.23381446589752,9e-07
mp-1102,,-0.056366114159274616,11.663418943786157,0.0,3.90177372,520.0,-16.61352723,Lu1N1,0.885792,225.0,26.904478686365643,8e-07
mp-1105,,2.599708633552126,5.391924716041924,0.0,2.24176671,520.0,-17.3686954,Ba1O2,3.910855,139.0,52.14688931814933,2.8e-06
mp-1106,,3.346419431578738,3.3534620387178156,0.0,2.73036401,520.0,-39.59377751,Sr8Si4,0.803384,62.0,402.7240227315787,4.2875e-05
mp-1108,,0.9538937234836595,12.117546486347193,0.0,9.23595048,520.0,-27.16826714,Ta1B2,0.0,191.0,27.75934835051866,7.2e-06
mp-1111,,-1.981715763887678,6.027479518607597,0.045078937499997807,7.61974741,520.0,-129.72168669,Mn10Si6,0.0,193.0,197.77588569237835,0.04318685
mp-1113,,1.4893443186627309,16.759717136298754,0.0,7.89105606,520.0,-66.75944799,B2W4,0.0,140.0,75.00115624593873,1.695e-05
mp-1114,,-0.862282028165005,5.074560360054708,0.0,8.16808559,520.0,-32.2499034,V2P2,0.0,194.0,53.609960615922994,2.07e-05
mp-1115,,13.801418720878978,7.821288412821826,0.0,3.0835397,520.0,-14.21121884,Pt1Se2,1.1203459999999998,164.0,74.94633778179194,2.66e-05
mp-1118,,27.474236139890607,7.3474068081963635,0.0,10.08157471,520.0,-74.54970361,Si4Ni8,0.0,62.0,131.5089471398906,7.85e-06
mp-1120,,2.593402091488187,12.732661427863341,0.08135289375000099,8.60870262,520.0,-83.52444635,Mo6Ir2,0.0,223.0,125.20872932348819,2.495e-05
mp-1121,,-4.20343224952558,8.876589952016564,0.0,5.98674829,520.0,-10.69985908,Ga1Co1,0.0,221.0,24.067647113384883,0.0014561
mp-1123,,4.148648405853798,7.12803411765149,0.0,1.36595528,520.0,-4.69644453,Hg1S1,0.22109499999999999,216.0,54.19905460251738,1e-07
mp-1124,,-0.48583799598725363,5.108719541080299,0.0,3.62971226,520.0,-18.08205465,Mg4Zn8,0.0,194.0,201.68482174885648,1.75e-07
mp-1125,,25.59251475868328,1.7485756171272735,0.055819699999999806,1.43015394,520.0,-47.18074812,Li8S4,4.9744660000000005,62.0,174.5347161965523,0.0003114
mp-1128,,3.0564507644820367,12.706547145046942,0.0,9.61556862,520.0,-62.64217353,Si4Ir4,0.0,62.0,115.15981412848203,2.275e-06
mp-1132,,1.4926540838005877,7.7914306670935325,0.0,1.54783851,520.0,-7.91277482,Cd1O1,0.456701,225.0,27.367307937754926,7e-07
mp-1136,,29.120998304489774,2.3390547985140144,0.0012181049999999694,1.24232357,520.0,-20.56261137,Na6As2,0.583399,194.0,204.30172916098996,1.145e-05
mp-1138,,0.6594472947994738,2.5304313170112076,0.0,-2.20165144,520.0,-9.69028318,Li1F1,11.192986,225.0,17.022154048732133,9e-07
mp-1139,,-1.3148786293957357,9.788203453925613,0.0,6.81143923,520.0,-64.73931636,Co6Mo2,0.0,194.0,92.53888740211308,0.0031327
mp-1143,,2.4565117009544224,3.873499573555533,0.0,5.85557102,520.0,-74.81297524,Al4O6,7.639919,167.0,87.42000774428871,0.0
mp-1145,,0.04046549962900059,4.487425375859519,0.0,8.42847659,520.0,-24.42741076,Ti1B2,0.0,191.0,25.7138977667029,1.9e-06