,band_gap.optimize_structure_gap,delta_volume,density,e_above_hull,efermi,encut,final_energy,full_formula,hse,spacegroup.number,structure.lattice.volume,total_magnetization
mp-1152,,1.799938866755781,10.282250393833554,0.0,6.71161597,520.0,-32.44694318,Ti1Rh3,0.0,221.0,57.586695527755786,0.0001167
mp-1153,,-0.9550233259456391,1.6295517490822542,0.0,0.68198126,520.0,-11.96264613,Li2S1,4.432593,225.0,46.82072067600768,0.0
mp-1156,,3.524661322188109,5.28767143036782,0.0,3.77470612,520.0,-7.48349749,Ga1Sb1,0.218423,216.0,60.13327438808007,0.0
mp-1158,,-7.810289143468935,12.069835922282094,0.0,4.23613859,520.0,-23.87673469,Lu1Pd3,0.0,221.0,67.99456375434387,0.0302769
mp-1159,,-16.29172997307404,7.001340698488708,0.017275727333331048,4.42743038,520.0,-51.962578480000005,Zr4Fe2,0.0,140.0,113.03401634036567,1.255e-05
mp-1161,,7.959532388203719,6.370267586673241,0.0,7.85432144,520.0,-12.43429444,La1Se1,0.0,225.0,56.79103954122576,0.0007459
mp-1169,,0.4866395409530355,5.222539014271168,0.0,5.29730246,520.0,-10.97061223,Sc1Cu1,0.0,221.0,34.498863540953046,2e-05
mp-1170,,15.026819538860707,3.6700893822586775,0.0,2.48942756,520.0,-13.4033375,Sn1S2,2.25563,164.0,82.72631166458072,2.26e-05
mp-1172,,0.7946104946990111,6.911660991661513,0.0,5.02743377,520.0,-9.89577024,Mg1Rh1,0.0,221.0,30.562552446187013,8.87e-05
mp-1174,,0.6424778707946501,2.471799567165844,0.0,3.52378768,520.0,-8.01239647,Mg1Sc1,0.0,221.0,46.52903489819565,0.0015298
mp-1175,,7.468583487410484,2.960341116098919,0.0,3.58480311,520.0,-36.28407262,Sr2S6,2.095441,41.0,206.21406227659926,1.06e-05
mp-1180,,1.9807643832470774,17.43267295379817,0.0,6.78733731,520.0,-28.77567784,Mn1Pt3,0.0,221.0,60.98092734024707,4.3006745
mp-1185,,0.9490056342927247,10.740571426227268,0.007794691249999985,6.88429588,520.0,-32.65565587,V1Rh3,0.0,221.0,55.60469050929272,0.0009826
mp-1186,,9.387447460387179,3.3074690414665873,0.0,1.83803428,520.0,-21.35985668,Zr1S2,1.97934,164.0,77.99661275310717,6.6e-06
mp-1190,,1.6700648476281899,5.064264571986021,0.0,1.29708276,520.0,-6.18516607,Zn1Se1,2.15767,216.0,47.337645428691815,8.84e-05
mp-1194,,3.7647424734662565,14.473744075063056,0.0,4.69584613,520.0,-15.23602387,Cd2Pt2,0.0,123.0,70.55637428114127,1.05e-06
mp-1201,,13.676145166679618,6.121654615148331,1.0167346,6.1012262,520.0,-18.32252304,Sb2Te3,0.397778,166.0,169.89341557414852,0.0
mp-1209,,9.450718825586549,12.94885542896608,0.0,3.32495869,520.0,-18.4695123,Rb1Au5,0.0,191.0,137.25352138722496,6.5e-06
mp-1211,,1.3807721760794536,5.8558625068473855,0.0,3.54935965,520.0,-7.8346266,Sc1Cd1,0.0,221.0,44.62432317607944,0.002981
mp-1214,,-1.1406925287806473,4.952399239688856,0.4170589100000015,6.71913148,520.0,-28.62647125,V2S2,0.0,194.0,55.66414465099535,1.22146675
mp-1215,,2.224981961449643,5.012926764627711,0.0,7.39560128,520.0,-26.157353999999998,Ti2O1,0.0,164.0,37.01184587038647,2.43e-05
mp-1216,,0.1023805203376078,11.722988986519702,0.0,1.05033299,520.0,-13.05959888,Yb1O1,0.0,225.0,26.777070605383905,3e-06
mp-1219,,4.601754805739432,5.17333940552612,0.0,2.31026716,520.0,-9.36404186,Ba1Ga2,0.0,191.0,88.83862737229015,0.0027941
mp-1220,,0.6297297859589079,7.014958451192117,0.0,5.96574222,520.0,-22.4827353,Be5Au1,0.0,216.0,57.29129836314029,2.31e-05
mp-1221,,-39.51703333548848,6.91631419266657,0.0,6.07956887,520.0,-66.43498439,V6Ge2,0.0,223.0,108.26361959699626,0.00090615
mp-1222,,0.38869931761297494,5.030730079569542,0.011407276666665744,10.93469788,520.0,-64.73262798,Cr3Si6,1.2213459999999998,180.0,107.11110885656157,6e-07
mp-1224,,17.55639755611122,9.849066293204165,0.0,0.41680181,520.0,-23.32090751,Hg4O4,2.358773,62.0,146.06670059611122,0.000145275
mp-1229,,1.954393636424939,4.753942639513603,0.0,1.07242536,520.0,-24.770533470000004,Cu2F4,0.0,14.0,70.9372439023007,0.00266015
mp-1231,,-2.736462085258978,7.715088995343666,0.0,6.54056721,520.0,-64.28717953,Cr6Ga2,0.0,223.0,97.16088191474101,0.0002295
mp-1232,,0.5632360743847045,12.666326721522044,0.065577492500001,8.14623281,520.0,-78.03276656,Mo6Pt2,0.0,223.0,126.61617881838472,8.65e-06
mp-1234,,0.9126641502299435,6.502482433523648,0.0,5.80324135,520.0,-26.94573468,Lu2Al4,0.0,227.0,116.92375473740876,0.00062595
mp-1235,,2.5874018718622303,13.171719791987561,0.0,8.24597056,520.0,-18.45441311,Ti1Ir1,0.0,123.0,30.26703127422075,8e-07
mp-1239,,18.980408229401405,8.931917290988245,0.0,7.70041458,520.0,-90.42747055,Sb12Ir4,0.669482,204.0,414.5786410794019,0.000123225
mp-1243,,5.625515349822891,6.182904919384234,0.029409656000002116,2.62837583,520.0,-60.06289326,Ga4O6,3.7010300000000003,167.0,100.68355117211367,1.95e-06
mp-1247,,12.122464857129785,10.568843022943405,0.0,8.34738773,520.0,-72.93514338,Sb8Ir4,0.9721350000000001,14.0,273.8457929980571,1.8775e-05
mp-1249,,0.051360548565327235,3.034475423586095,0.0,-0.89830813,520.0,-31.97427302,Mg2F4,8.985445,136.0,68.18613918280533,2.5e-07
mp-1250,,3.595174641535408,9.662456659586997,0.0,4.79253421,520.0,-25.559917130000002,Lu4In2,0.0,194.0,159.73967430992158,0.00276825
mp-1251,,0.8349449725488967,9.269429043178434,0.021926110000000776,6.64243754,520.0,-34.34444842,V2Rh2,0.0,123.0,55.1207519895489,4.5e-07
mp-1252,,6.669498818854862,4.428550035520857,0.03367687066666658,3.26394805,520.0,-16.51821344,Zr1Be2,0.0,191.0,40.96401125042142,8.74e-05
mp-1253,,2.7527280767647824,4.805292475139997,0.0,1.1018151,520.0,-9.51033231,Ba1Se1,2.8451459999999997,225.0,74.74113369842621,0.0
mp-1259,,4.769730380518652,5.333924869365005,0.08768799750000023,5.27408726,520.0,-13.45897302,Yb1Al3,0.0,221.0,79.06961204451865,4.4e-05
mp-1260,,5.069002238699525,8.926363831674463,0.0,3.47034023,520.0,-29.84060843,Sr1Pd5,0.0,191.0,115.28426056500552,4.8e-06
mp-1264,,4.982540788795063,15.585444082038476,0.003957211249999926,4.55552532,520.0,-11.23340111,Cd1Au3,0.0,221.0,74.93369326379506,1.5e-05
mp-1265,,0.2231113248271086,3.471432883389467,0.0,3.9688196,520.0,-11.96804153,Mg1O1,6.300873999999999,225.0,19.279367319476794,0.0
mp-1266,,0.9995132569815013,2.5779435731615883,0.0,-0.00275235,520.0,-9.32670073,Na2Se1,2.843257,225.0,80.4777046240884,6.68e-05
mp-1272,,-3.2782806420229775,8.586720984212414,0.07113441125000008,7.27579995,520.0,-75.80385304,Cr6Ru2,0.0,223.0,99.422199344977,0.00402235
mp-1274,,-1.1100147996117613,6.063260995525237,0.19384556791666352,8.04449369,520.0,-23.56031494,Co2S2,0.0,194.0,49.843163762388244,5.04e-05
mp-1275,,0.46480180550258865,8.812458874177093,0.0,9.37248339,520.0,-78.40131858,Si2Mo6,0.0,223.0,119.05267830250261,1.1e-06
mp-1278,,0.748155846238916,5.9720900709932,0.0,5.45424288,520.0,-49.71767543,Zr4Si2,0.0,140.0,117.07763674759822,2.05e-06
mp-1279,,2.4950595710241146,13.995589513674071,0.0,8.18033422,520.0,-67.61202893,Ta3N3,,189.0,69.39250914736613,7.333333333333333e-07